DF-ISE text

Info {
  version  = 1.0
  type     = xyplot
  datasets  = [ "hbar_omega" "gx" "gy" "gz" "spx" "spy" "spz" "lumi" ]
  functions = [ hbar_omega gx gy gz spx spy spz lumi ]
}

Data {

 2.896041451362883e+00 1.190260795404741e-28 8.485604321788027e-28 2.469213393306623e-28 2.763084004925125e-17 4.035047072763763e-16 8.287676215748418e-17 1.713374364943706e-16
 2.896917546481781e+00 1.379553747640885e-28 9.835111169178435e-28 2.861904385671110e-28 3.204448573409743e-17 4.679590201713506e-16 9.611518209037020e-17 1.987062293319394e-16
 2.897793641600680e+00 1.598951023205199e-28 1.139923768406040e-27 3.317047236187469e-28 3.716314705658693e-17 5.427089711281993e-16 1.114682468626506e-16 2.304467883491456e-16
 2.898669736719579e+00 1.853240305185497e-28 1.321211620487447e-27 3.844574063303174e-28 4.309943945960139e-17 6.293991305339816e-16 1.292737385778847e-16 2.672574361904893e-16
 2.899545831838477e+00 2.147970696199678e-28 1.531330738029399e-27 4.455996561394664e-28 4.998396689108732e-17 7.299367624346503e-16 1.499233945959037e-16 3.099480413072138e-16
 2.900421926957375e+00 2.489573812976775e-28 1.774866347641268e-27 5.164657213243206e-28 5.796819516463061e-17 8.465337854206092e-16 1.738715259758411e-16 3.594578355203603e-16
 2.901298022076274e+00 2.885504139661888e-28 2.057132898317980e-27 5.986020455014689e-28 6.722778428881881e-17 9.817554360253427e-16 2.016450125637798e-16 4.168760776259804e-16
 2.902174117195173e+00 3.344401702739340e-28 2.384290035606012e-27 6.938010147762048e-28 7.796645307717648e-17 1.138576705239761e-15 2.338548946185550e-16 4.834660176451642e-16
 2.903050212314072e+00 3.876280617595663e-28 2.763477020172533e-27 8.041400720022354e-28 9.042046106070843e-17 1.320447789754572e-15 2.712098159933227e-16 5.606926889362009e-16
 2.903926307432970e+00 4.492747621338286e-28 3.202968524168458e-27 9.320270517338737e-28 1.048638063056618e-16 1.531369997865810e-15 3.145316146245181e-16 6.502551395986634e-16
 2.904802402551868e+00 5.207255360876465e-28 3.712355205304556e-27 1.080252725208144e-27 1.216142534890087e-16 1.775983779980917e-15 3.647734033204561e-16 7.541238122634608e-16
 2.905678497670767e+00 6.035395963736606e-28 4.302752999284531e-27 1.252051702038929e-27 1.410403248497368e-16 2.059670820402734e-15 4.230405386282365e-16 8.745838946269024e-16
 2.906554592789666e+00 6.995241298174191e-28 4.987045697960029e-27 1.451173017673814e-27 1.635694078171363e-16 2.388672436414478e-15 4.906149390947900e-16 1.014285594442135e-15
 2.907430687908564e+00 8.107737348055826e-28 5.780166106974035e-27 1.681961947039025e-27 1.896971576841613e-16 2.770226889449273e-15 5.689832879245748e-16 1.176302445019337e-15
 2.908306783027463e+00 9.397161308926337e-28 6.699421918576190e-27 1.949454829785726e-27 2.199984021844469e-16 3.212728629186604e-15 6.598697404916921e-16 1.364198923954248e-15
 2.909182878146361e+00 1.089165138045980e-27 7.764873411125902e-27 2.259488976507270e-27 2.551397878733881e-16 3.725912973941514e-15 7.652738562708557e-16 1.582108872695253e-15
 2.910058973265260e+00 1.262382081695193e-27 8.999771217817765e-27 2.618830054410139e-27 2.958944465328510e-16 4.321070290303333e-15 8.875145896871844e-16 1.834826442174456e-15
 2.910935068384159e+00 1.463146963629239e-27 1.043106371806641e-26 3.035319732379084e-27 3.431590042591156e-16 5.011294383956984e-15 1.029281307679690e-15 2.127911565298596e-15
 2.911811163503057e+00 1.695840951907932e-27 1.208998512437918e-26 3.518046807502395e-27 3.979733074320621e-16 5.811770566256678e-15 1.193692956359033e-15 2.467812276682591e-15
 2.912687258621956e+00 1.965541989970512e-27 1.401273709857683e-26 4.077545547563277e-27 4.615432995340089e-16 6.740109733974197e-15 1.384366678417255e-15 2.862006570641820e-15
 2.913563353740854e+00 2.278135611430258e-27 1.624127877235370e-26 4.726025577948700e-27 5.352675521046876e-16 7.816735811924642e-15 1.605497390862025e-15 3.319166918297118e-15
 2.914439448859753e+00 2.640443378878800e-27 1.882424241288366e-26 5.477638329823600e-27 6.207680335078224e-16 9.065335082126597e-15 1.861950073768789e-15 3.849351063134403e-15
 2.915315543978652e+00 3.060371749641359e-27 2.181799471619495e-26 6.348785864313079e-27 7.199257924156952e-16 1.051337728464318e-14 2.159366800383998e-15 4.464223292480959e-15
 2.916191639097550e+00 3.547084617206769e-27 2.528786688910687e-26 7.358478812217431e-27 8.349223410394254e-16 1.219271995419293e-14 2.504290863214969e-15 5.177311052815775e-15
 2.917067734216448e+00 4.111203293740086e-27 2.930958036406407e-26 8.528751240653417e-27 9.682876485248514e-16 1.414030928777126e-14 2.904310726846616e-15 6.004302554380909e-15
 2.917943829335347e+00 4.765038297941277e-27 3.397089926056634e-26 9.885141500350487e-27 1.122955800353986e-15 1.639899296215652e-14 3.368226974403060e-15 6.963391912304525e-15
 2.918819924454246e+00 5.522858006620210e-27 3.937354565531329e-26 1.145724954726424e-26 1.302329548241612e-15 1.901846278303236e-14 3.906245920424278e-15 8.075679417232749e-15
 2.919696019573145e+00 6.401200032843554e-27 4.563541945851985e-26 1.327938290108710e-26 1.510355170600941e-15 2.205634790366085e-14 4.530204149569903e-15 9.365635741277231e-15
 2.920572114692043e+00 7.419232125959290e-27 5.289317134147971e-26 1.539130533761718e-26 1.751609290481132e-15 2.557948266351470e-14 5.253828920919030e-15 1.086164029163829e-14
 2.921448209810941e+00 8.599170469540867e-27 6.130518486523371e-26 1.783910465394843e-26 2.031399560935813e-15 2.966537693880117e-14 6.093040166654541e-15 1.259660555546384e-14
 2.922324304929840e+00 9.966764505919345e-27 7.105503289042940e-26 2.067619844403978e-26 2.355881432857487e-15 3.440392135195935e-14 7.066300728973071e-15 1.460870117126330e-14
 2.923200400048739e+00 1.155185886781962e-26 8.235548369895073e-26 2.396449983409608e-26 2.732193574117014e-15 3.989936485395970e-14 8.195022540273349e-15 1.694219365611669e-14
 2.924076495167637e+00 1.338904468036451e-26 9.545314425455812e-26 2.777576861808234e-26 3.168614919162967e-15 4.627260818525324e-14 9.504037682388178e-15 1.964842026226813e-14
 2.924952590286536e+00 1.551841444710809e-26 1.106338419345315e-25 3.219317727981817e-26 3.674746804094221e-15 5.366386367037061e-14 1.102214468792975e-14 2.278691838746486e-14
 2.925828685405434e+00 1.798643699431742e-26 1.282288621802827e-25 3.731312607766110e-26 4.261724194077291e-15 6.223573986019306e-14 1.278274210207767e-14 2.642673538544934e-14
 2.926704780524333e+00 2.084697156785371e-26 1.486221781943329e-25 4.324734680328842e-26 4.942460649994856e-15 7.217681888232077e-14 1.482456324281925e-14 3.064794759171163e-14
 2.927580875643232e+00 2.416244321381273e-26 1.722588304610725e-25 5.012534112599192e-26 5.731932423447289e-15 8.370580519913422e-14 1.719252832393288e-14 3.554342198217147e-14
 2.928456970762130e+00 2.800520509389981e-26 1.996546389621681e-25 5.809720673580766e-26 6.647507930022922e-15 9.707633704368544e-14 1.993873268689949e-14 4.122085922020262e-14
 2.929333065881029e+00 3.245911746612912e-26 2.314074600418561e-25 6.733691296202427e-26 7.709329849038852e-15 1.125825663819344e-13 2.312359288221128e-14 4.780516303772817e-14
 2.930209160999927e+00 3.762137778987730e-26 2.682102335873772e-25 7.804609735282840e-26 8.940758255689715e-15 1.305656301567524e-13 2.681717581309795e-14 5.544118807518001e-14
 2.931085256118826e+00 4.360464189484286e-26 3.108661052614757e-25 9.045846607127198e-26 1.036888453421134e-14 1.514211551766723e-13 3.110074018193060e-14 6.429692663093804e-14
 2.931961351237725e+00 5.053948250552623e-26 3.603059538090492e-25 1.048448941401920e-25 1.202512737777182e-14 1.756079617514350e-13 3.606852414999415e-14 7.456720442640034e-14
 2.932837446356623e+00 5.857723877529925e-26 4.176087059484009e-25 1.215193368422299e-25 1.394592398665110e-14 2.036581575479355e-13 4.182981853783172e-14 8.647796669080613e-14
 2.933713541475521e+00 6.789331901743455e-26 4.840248821931266e-25 1.408456812835564e-25 1.617353167053332e-14 2.361888437235762e-13 4.851137117496533e-14 1.002912488563583e-13
 2.934589636594420e+00 7.869102871100219e-26 5.610038874622957e-25 1.632456876479829e-25 1.875695748952636e-14 2.739156908626755e-13 5.626017529277520e-14 1.163109412149924e-13
 2.935465731713319e+00 9.120600732309503e-26 6.502256420625123e-25 1.892081934494260e-25 2.175303638524719e-14 3.176686833753848e-13 6.524670330289435e-14 1.348894743545088e-13
 2.936341826832217e+00 1.057113707755873e-25 7.536372433492031e-25 2.192997816542571e-25 2.522768151993693e-14 3.684103787224373e-13 7.566865710147762e-14 1.564355724479506e-13
 2.937217921951116e+00 1.225236717846877e-25 8.734954581646493e-25 2.541771454927068e-25 2.925733432999020e-14 4.272570831529842e-13 8.775531740281974e-14 1.814232449619314e-13
 2.938094017070014e+00 1.420098081506461e-25 1.012415973399883e-24 2.946014198066908e-25 3.393064619375065e-14 4.955034098023606e-13 1.017725877836786e-13 2.104022145932633e-13
 2.938970112188913e+00 1.645950297631986e-25 1.173430479518137e-24 3.414547916994868e-25 3.935042870872329e-14 5.746507594054685e-13 1.180288444026609e-13 2.440100108389509e-13
 2.939846207307812e+00 1.907722190666907e-25 1.360052832823860e-24 3.957597529960800e-25 4.563591548244151e-14 6.664403501742585e-13 1.368817200829129e-13 2.829859952465376e-13
 2.940722302426710e+00 2.211126475208911e-25 1.576355740396580e-24 4.587014146781288e-25 5.292538519417814e-14 7.728915234643736e-13 1.587459720013104e-13 3.281876268866207e-13
 2.941598397545609e+00 2.562784428058111e-25 1.827059641256702e-24 5.316533702823431e-25 6.137920363223012e-14 8.963461679172211e-13 1.841026060654264e-13 3.806093258716258e-13
 2.942474492664507e+00 2.970370388542401e-25 2.117635723501724e-24 6.162076727038818e-25 7.118335162844819e-14 1.039520239362634e-12 2.135094587051227e-13 4.414043498987351e-13
 2.943350587783406e+00 3.442779240694845e-25 2.454425325658831e-24 7.142095786185269e-25 8.255351650089791e-14 1.205563509866322e-12 2.476134688671634e-13 5.119101650781277e-13
 2.944226682902304e+00 3.990320532413736e-25 2.844778328068473e-24 8.277978187857537e-25 9.573983701190530e-14 1.398128860335664e-12 2.871649101832852e-13 5.936778691769514e-13
 2.945102778021203e+00 4.624943468070851e-25 3.297213554559020e-24 9.594512730937420e-25 1.110324062253632e-13 1.621452641045229e-12 3.330338964038090e-13 6.885063145581338e-13
 2.945978873140102e+00 5.360497684820059e-25 3.821604685028391e-24 1.112043068985225e-24 1.287676533199073e-13 1.880447867922232e-12 3.862295231975936e-13 7.984816814799110e-13
 2.946854968259000e+00 6.213035503812253e-25 4.429395736305353e-24 1.288903283913172e-24 1.493357447504752e-13 2.180812304802614e-12 4.479220674157995e-13 9.260233723229627e-13
 2.947731063377899e+00 7.201162252679340e-25 5.133850813968348e-24 1.493891620251469e-24 1.731891675749951e-13 2.529153809338521e-12 5.194687321768365e-13 1.073937236363451e-12
 2.948607158496797e+00 8.346442304779515e-25 5.950343585744018e-24 1.731481638728982e-24 2.008526837691205e-13 2.933135700017537e-12 6.024435041335926e-13 1.245477295973417e-12
 2.949483253615696e+00 9.673869696664995e-25 6.896692793995723e-24 2.006858388710158e-24 2.329348745114956e-13 3.401645342185945e-12 6.986717797454639e-13 1.444417332147635e-12
 2.950359348734594e+00 1.121241359462246e-24 7.993551129595080e-24 2.326031566025038e-24 2.701415283993778e-13 3.944989661757947e-12 8.102705222898637e-13 1.675133904149063e-12
 2.951235443853493e+00 1.299565051466465e-24 9.264855954042108e-24 2.695966667929301e-24 3.132911681180890e-13 4.575121887660041e-12 9.396948330156455e-13 1.942702629597925e-12
 2.952111538972392e+00 1.506249709369600e-24 1.073835170650340e-23 3.124737007552116e-24 3.633330571306576e-13 5.305904511046848e-12 1.089791960942752e-12 2.253009843040086e-12
 2.952987634091290e+00 1.745805940404669e-24 1.244619539692016e-23 3.621699905435950e-24 4.213680825107597e-13 6.153414246039870e-12 1.263863939451440e-12 2.612882089334023e-12
 2.953863729210189e+00 2.023461734706072e-24 1.442565839964161e-23 4.197700903423189e-24 4.886729733126584e-13 7.136295700707207e-12 1.465740227580274e-12 3.030236300533380e-12
 2.954739824329087e+00 2.345276560947011e-24 1.671993986376142e-23 4.865310457721363e-24 5.667283872489689e-13 8.276171538559636e-12 1.699861954041457e-12 3.514253959950021e-12
 2.955615919447986e+00 2.718273608316308e-24 1.937910949229216e-23 5.639098276814338e-24 6.572514835430035e-13 9.598118153529305e-12 1.971379617201440e-12 4.075583084757916e-12
 2.956492014566884e+00 3.150593060933860e-24 2.246120026574911e-23 6.535951291474255e-24 7.622336985118194e-13 1.113121732259943e-11 2.286266390286430e-12 4.726572470465893e-12
 2.957368109685783e+00 3.651669749825536e-24 2.603347495817118e-23 7.575442196376595e-24 8.839845548872942e-13 1.290919597163316e-11 2.651449524361053e-12 5.481543350293835e-12
 2.958244204804682e+00 4.232439059609312e-24 3.017389408655819e-23 8.780256606525986e-24 1.025182468614980e-12 1.497116812829474e-11 3.074962739749510e-12 6.357104445553076e-12
 2.959120299923580e+00 4.905575583692120e-24 3.497281733091177e-23 1.017668815094560e-23 1.188933670803267e-12 1.736249538390339e-11 3.566122958279610e-12 7.372517337662088e-12
 2.959996395042479e+00 5.685769736499937e-24 4.053497555746111e-23 1.179521230878570e-23 1.378840541014435e-12 2.013578479304696e-11 4.135735264185221e-12 8.550120199415538e-12
 2.960872490161377e+00 6.590048359667298e-24 4.698175648351872e-23 1.367115151154378e-23 1.599080855123829e-12 2.335204616319579e-11 4.796330602488303e-12 9.915819206935976e-12
 2.961748585280276e+00 7.638146319258947e-24 5.445385386747404e-23 1.584544602692437e-23 1.854499691072414e-12 2.708203419282501e-11 5.562441443842418e-12 1.149965844257995e-11
 2.962624680399174e+00 8.852937203968313e-24 6.311433804132532e-23 1.836554744853862e-23 2.150716014291462e-12 3.140780498292550e-11 6.450921480020518e-12 1.333648082574583e-11
 2.963500775518073e+00 1.026093252409624e-23 7.315221479880675e-23 2.128645429147183e-23 2.494246287502930e-12 3.642452116258876e-11 7.481316382820908e-12 1.546669461097086e-11
 2.964376870636972e+00 1.189286030612755e-23 8.478655031041381e-23 2.467191229517825e-23 2.892647824104740e-12 4.224254533841627e-11 8.676293782468182e-12 1.793716231499640e-11
 2.965252965755870e+00 1.378433571051513e-23 9.827125209005141e-23 2.859580562986190e-23 3.354685038672407e-12 4.898986792008959e-11 1.006214192430450e-11 2.080223162768883e-11
 2.966129060874769e+00 1.597663830866936e-23 1.139006103562273e-22 3.314376936893681e-23 3.890522251801851e-12 5.681492273008417e-11 1.166934797336055e-11 2.412493098508219e-11
 2.967005155993668e+00 1.851761298297052e-23 1.320157207261966e-22 3.841505841925269e-23 4.511947290663045e-12 6.588985233602262e-11 1.353326868849641e-11 2.797835610506070e-11
 2.967881251112566e+00 2.146271411167801e-23 1.530119284164321e-22 4.452471369792981e-23 5.232630804080652e-12 7.641429493719373e-11 1.569490821975457e-11 3.244727798700965e-11
 2.968757346231465e+00 2.487621582778703e-23 1.773474564170796e-22 5.160607283202235e-23 6.068426996607781e-12 8.861977610994232e-11 1.820182013907125e-11 3.763000774854046e-11
 2.969633441350363e+00 2.883261476541557e-23 2.055534059480332e-22 5.981368017637282e-23 7.037722397190353e-12 1.027748020222652e-10 2.110915354736557e-11 4.364055932227371e-11
 2.970509536469262e+00 3.341825590838725e-23 2.382453474546316e-22 6.932665966022880e-23 8.161840334697845e-12 1.191907661590625e-10 2.448086627045724e-11 5.061115758807253e-11
 2.971385631588161e+00 3.873321702477995e-23 2.761367551137925e-22 8.035262407421959e-23 9.465510018011536e-12 1.382287994947460e-10 2.839113183181281e-11 5.869514711485679e-11
 2.972261726707059e+00 4.489349281493832e-23 3.200545780566195e-22 9.313220611728687e-23 1.097741053955062e-11 1.603077148041320e-10 3.292597115287668e-11 6.807036549885311e-11
 2.973137821825958e+00 5.203352644163796e-23 3.709572881469985e-22 1.079443100929629e-22 1.273080176926342e-11 1.859132198711195e-10 3.818514487524286e-11 7.894305550520860e-11
 2.974013916944856e+00 6.030914369274301e-23 4.299557982067746e-22 1.251121988726318e-22 1.476425601752193e-11 2.156086022677795e-10 4.428434793206813e-11 9.155240207245652e-11
 2.974890012063755e+00 6.990095381416943e-23 4.983377072256876e-22 1.450105489731458e-22 1.712250656205870e-11 2.500471207479100e-10 5.135775464496425e-11 1.061757939849776e-10
 2.975766107182654e+00 8.101829123608347e-23 5.775954017060712e-22 1.680736277253648e-22 1.985743170484095e-11 2.899863758409183e-10 5.956097033340756e-11 1.231349259597223e-10
 2.976642202301552e+00 9.390378422032860e-23 6.694586264527947e-22 1.948047709999258e-22 2.302919600614027e-11 3.363049757699895e-10 6.907445436609816e-11 1.428028753807426e-10
 2.977518297420450e+00 1.088386501397077e-22 7.759322356652325e-22 2.257873683414015e-22 2.670757380060704e-11 3.900218643105690e-10 8.010748995437574e-11 1.656123093551839e-10
 2.978394392539349e+00 1.261488329586052e-22 8.993399482489496e-22 2.616975952614383e-22 3.097348410995553e-11 4.523187357619171e-10 9.290278801490718e-11 1.920650026289266e-10
 2.979270487658248e+00 1.462121168656363e-22 1.042375062308030e-21 3.033191705735187e-22 3.592077071711373e-11 5.245660301140049e-10 1.077418263769515e-10 2.227428757360234e-10
 2.980146582777147e+00 1.694663713137604e-22 1.208159235664638e-21 3.515604608490190e-22 4.165826655968796e-11 6.083530802482285e-10 1.249510417854227e-10 2.583207961977797e-10
 2.981022677896045e+00 1.964191074163800e-22 1.400310615294535e-21 4.074743053004076e-22 4.831218785493079e-11 7.055230743450845e-10 1.449090109104115e-10 2.995814243701422e-10
 2.981898773014943e+00 2.276585542690451e-22 1.623022802612363e-21 4.722809937722912e-22 5.602891062181530e-11 8.182136025966541e-10 1.680547783299458e-10 3.474324305161383e-10
 2.982774868133842e+00 2.638664969385447e-22 1.881156378031751e-21 5.473948993371650e-22 6.497819067750150e-11 9.489036801609749e-10 1.948975146830132e-10 4.029264618404965e-10
 2.983650963252741e+00 3.058331563107225e-22 2.180344982339664e-21 6.344553467569117e-22 7.535689794100931e-11 1.100468280759584e-09 2.260277174508872e-10 4.672842987171603e-10
 2.984527058371639e+00 3.544744355522725e-22 2.527118270129111e-21 7.353623905195006e-22 8.739334719034271e-11 1.276241580534118e-09 2.621302007586526e-10 5.419217094943713e-10
 2.985403153490538e+00 4.108519095940350e-22 2.929044418774200e-21 8.523182833138884e-22 1.013523205398642e-10 1.480090303382850e-09 3.039991599429867e-10 6.284805946219002e-10
 2.986279248609436e+00 4.761959939108760e-22 3.394895303238334e-21 9.878755400020192e-22 1.175408921208578e-10 1.716498781205746e-09 3.525556422720054e-10 7.288651051995364e-10
 2.987155343728335e+00 5.519327982626122e-22 3.934837941697641e-21 1.144992646096370e-21 1.363151830946936e-10 1.990667600185409e-09 4.088678081323459e-10 8.452835304708160e-10
 2.988031438847234e+00 6.397152514863763e-22 4.560656390333859e-21 1.327098626595978e-21 1.580881955929924e-10 2.308628003089958e-09 4.741744283819290e-10 9.802968756882929e-10
 2.988907533966132e+00 7.414591766484492e-22 5.286008930217691e-21 1.538167884415519e-21 1.833388979128500e-10 2.677374564176602e-09 5.499121347543039e-10 1.136875198947919e-09
 2.989783629085031e+00 8.593851039076216e-22 6.126726159470789e-21 1.782806941780622e-21 2.126227608195773e-10 3.105019055224956e-09 6.377470227579718e-10 1.318462946267502e-09
 2.990659724203929e+00 9.960667336705660e-22 7.101156496673590e-21 2.066354977751072e-21 2.465839767300526e-10 3.600968887379174e-09 7.396113022577791e-10 1.529054722122335e-09
 2.991535819322828e+00 1.154487107765963e-21 8.230566636260723e-21 2.395000356141437e-21 2.859696305687274e-10 4.176134054081873e-09 8.577458019612469e-10 1.773283162203949e-09
 2.992411914441726e+00 1.338103714596008e-21 9.539605696006669e-21 2.775915687108111e-21 3.316461340200611e-10 4.843167127332149e-09 9.947492628033365e-10 2.056520841385182e-09
 2.993288009560625e+00 1.550923949212271e-21 1.105684318681191e-20 3.217414370178194e-21 3.846182846895741e-10 5.616741586581388e-09 1.153635504560097e-09 2.384998458610352e-09
 2.994164104679523e+00 1.797592575268364e-21 1.281539254623974e-20 3.729132035346799e-21 4.460513694274307e-10 6.513874602807045e-09 1.337899723213767e-09 2.765941898482748e-09
 2.995040199798422e+00 2.083493097745525e-21 1.485363384470132e-20 4.322236842276043e-21 5.172967980305308e-10 7.554301378179483e-09 1.551595377440075e-09 3.207731184550030e-09
 2.995916294917321e+00 2.414865258963899e-21 1.721605143772860e-20 5.009673227485319e-21 5.999218311990191e-10 8.760909275837497e-09 1.799423355523739e-09 3.720084820853419e-09
 2.996792390036219e+00 2.798941222291070e-21 1.995420484653315e-20 5.806444419442563e-21 6.957440566846563e-10 1.016024128949446e-08 2.086835384141708e-09 4.314273576773608e-09
 2.997668485155118e+00 3.244103415832763e-21 2.312785405685571e-20 6.729939887604321e-21 8.068713720157670e-10 1.178307992788412e-08 2.420153953735676e-09 5.003368417878521e-09
 2.998544580274016e+00 3.760067481135202e-21 2.680626379640254e-20 7.800314872169337e-21 9.357483533126839e-10 1.366512435795511e-08 2.806711398514075e-09 5.802528036593956e-09
 2.999420675392915e+00 4.358094319864744e-21 3.106971525751133e-20 9.040930278010481e-21 1.085210030183448e-09 1.584777570215150e-08 3.255011190471079e-09 6.729332307602008e-09
 3.000296770511814e+00 5.051235866516647e-21 3.601125825933721e-20 1.047886253374618e-20 1.258544249602163e-09 1.837904776419735e-08 3.774914995455376e-09 7.804169003084964e-09
 3.001172865630712e+00 5.854619951301983e-21 4.173874209164458e-20 1.214549454395764e-20 1.459564000605293e-09 2.131462321686929e-08 4.377859606011817e-09 9.050682274495466e-09
 3.002048960749611e+00 6.785780470538378e-21 4.837716936473966e-20 1.407720063248340e-20 1.692691290750144e-09 2.471907848498119e-08 5.077108522921843e-09 1.049629276621772e-08
 3.002925055868509e+00 7.865040070744450e-21 5.607142423997120e-20 1.631614042615896e-20 1.963054419384693e-09 2.866730426760491e-08 5.888043719537619e-09 1.217280080217574e-08
 3.003801150987408e+00 9.115953698797169e-21 6.498943458641647e-20 1.891117900609240e-20 2.276600787468528e-09 3.324615294704152e-08 6.828504006908828e-09 1.411708591380629e-08
 3.004677246106306e+00 1.056582269896098e-20 7.532583708015096e-20 2.191895340945506e-20 2.640227725440527e-09 3.855634912286008e-08 7.919177442774034e-09 1.637191809702488e-08
 3.005553341225205e+00 1.224629067736965e-20 8.730622523984112e-20 2.540510875904688e-20 3.061934216976985e-09 4.471470529736123e-08 9.184056416306411e-09 1.898689864354821e-08
 3.006429436344104e+00 1.419403413916063e-20 1.011920731152953e-19 2.944573100011134e-20 3.550996856121906e-09 5.185669145110197e-08 1.065096541915531e-08 2.201955124212639e-08
 3.007305531463002e+00 1.645156297200043e-20 1.172864420926350e-19 3.412900751509422e-20 4.118173908339213e-09 6.013941503174139e-08 1.235217311222611e-08 2.553658735076890e-08
 3.008181626581901e+00 1.906814824722852e-20 1.359405953719176e-19 3.955715186065751e-20 4.775941964231790e-09 6.974507690722412e-08 1.432510215187266e-08 2.961537367444285e-08
 3.009057721700799e+00 2.210089758869077e-20 1.575616644839678e-19 4.584863463602162e-20 5.538770391611239e-09 8.088497930408057e-08 1.661315238958537e-08 3.434563402842573e-08
 3.009933816819698e+00 2.561600158015379e-20 1.826215351750345e-19 5.314076917333899e-20 6.423439623047428e-09 9.380417389355847e-08 1.926665555311882e-08 3.983142302324158e-08
 3.010809911938596e+00 2.969017841529168e-20 2.116671466019094e-19 6.159270848517755e-20 7.449410280268915e-09 1.087868522695436e-07 2.234398240918015e-08 4.619341498633089e-08
 3.011686007057495e+00 3.441234832110048e-20 2.453324286271941e-19 7.138891888033439e-20 8.639251255035198e-09 1.261625973924786e-07 2.591282676190883e-08 5.357155846980756e-08
 3.012562102176394e+00 3.988557430065813e-20 2.843521377577892e-19 8.274320606301907e-20 1.001913616295427e-08 1.463136335119850e-07 3.005169453120009e-08 6.212815473537977e-08
 3.013438197295292e+00 4.622931155387649e-20 3.295778937097604e-19 9.590338158903577e-20 1.161941909070377e-08 1.696832340442030e-07 3.485163066601693e-08 7.205142793364122e-08
 3.014314292414191e+00 5.358201467214816e-20 3.819967666139785e-19 1.111566715291334e-19 1.347530230131081e-08 1.967854723511022e-07 4.041822187943421e-08 8.355966551061575e-08
 3.015190387533089e+00 6.210415951163939e-20 4.427528205477312e-19 1.288359853892610e-19 1.562761058492132e-08 2.282165299084533e-07 4.687391925933064e-08 9.690601991756842e-08
 3.016066482651988e+00 7.198174570085622e-20 5.131720836029920e-19 1.493271821136334e-19 1.812368928834031e-08 2.646678106065936e-07 5.436073184486055e-08 1.123840772465981e-07
 3.016942577770886e+00 8.343035622849505e-20 5.947914894901176e-19 1.730774917589835e-19 2.101844577713326e-08 3.069411496568307e-07 6.304335041880565e-08 1.303343152842565e-07
 3.017818672889785e+00 9.669986271674641e-20 6.893924223606413e-19 2.006052766527113e-19 2.437555723915288e-08 3.559664516512270e-07 7.311277022934130e-08 1.511515930399071e-07
 3.018694768008684e+00 1.120798790778700e-19 7.990395970022563e-19 2.325113450830455e-19 2.826887139724263e-08 4.128221457557158e-07 8.479049232931240e-08 1.752938364940902e-07
 3.019570863127582e+00 1.299060825865740e-19 9.261261230123966e-19 2.694920644559667e-19 3.278403094227505e-08 4.787589079847946e-07 9.833339594892766e-08 2.032921116253324e-07
 3.020446958246481e+00 1.505675403331090e-19 1.073425736529510e-18 3.123545601290731e-19 3.802035741873033e-08 5.552271723701018e-07 1.140393890781073e-07 2.357623062889798e-07
 3.021323053365379e+00 1.745152009658222e-19 1.244153339543093e-18 3.620343316554698e-19 4.409303600209129e-08 6.439090361779781e-07 1.322539615526760e-07 2.734186779109150e-07
 3.022199148484278e+00 2.022717370660119e-19 1.442035168128176e-18 4.196156709340544e-19 5.113564922590468e-08 7.467552609848505e-07 1.533777847905524e-07 3.170895650004359e-07
 3.023075243603176e+00 2.344429529773664e-19 1.671390121114682e-18 4.863553279181922e-19 5.930311539203281e-08 8.660281835104050e-07 1.778755253467099e-07 3.677356080830493e-07
 3.023951338722075e+00 2.717310070805748e-19 1.937224024294907e-18 5.637099404173916e-19 6.877509629922079e-08 1.004351480102288e-06 2.062860661554359e-07 4.264708808523149e-07
 3.024827433840974e+00 3.149497371066518e-19 2.245338887609297e-18 6.533678266834741e-19 7.975994924844659e-08 1.164767879522153e-06 2.392343602925254e-07 4.945873963543749e-07
 3.025703528959872e+00 3.650424229844502e-19 2.602459539994862e-18 7.572858346969889e-19 9.249931025566689e-08 1.350806093517142e-06 2.774451779996852e-07 5.735835272574981e-07
 3.026579624078771e+00 4.231023749207203e-19 3.016380405874545e-18 8.777320524397884e-19 1.072734092868596e-07 1.566558437418889e-06 3.217590493583442e-07 6.651969653546976e-07
 3.027455719197669e+00 4.903967960762047e-19 3.496135626888162e-18 1.017335311364842e-18 1.244072344321294e-07 1.816770848154443e-06 3.731507532964877e-07 7.714429452943536e-07
 3.028331814316568e+00 5.683944406740281e-19 4.052196242009951e-18 1.179142563545731e-18 1.442776806090975e-07 2.106947279749770e-06 4.327507596218595e-07 8.946585733269089e-07
 3.029207909435466e+00 6.587976712191031e-19 4.696698729797091e-18 1.366685384846161e-18 1.673218400421305e-07 2.443470772662837e-06 5.018700957314885e-07 1.037554236145486e-06
 3.030084004554365e+00 7.635796145231940e-19 5.443709901030388e-18 1.584057055636099e-18 1.940466168783325e-07 2.833743860039130e-06 5.820291849763193e-07 1.203273220631261e-06
 3.030960099673264e+00 8.850272275217705e-19 6.309533923427215e-18 1.836001901457262e-18 2.250398774277807e-07 3.286351399329342e-06 6.749912910227575e-07 1.395460855926627e-06
 3.031836194792162e+00 1.025791212858799e-18 7.313068179702095e-18 2.128018843631940e-18 2.609833812931977e-07 3.811249410979179e-06 7.828013038667724e-07 1.618344698713050e-06
 3.032712289911061e+00 1.188943873723704e-18 8.476215726122306e-18 2.466481419966267e-18 3.026677778271957e-07 4.419984077959780e-06 9.078307206527789e-07 1.876827525479918e-06
 3.033588385029959e+00 1.378046170712404e-18 9.824363354107642e-18 2.858776895186295e-18 3.510099977845967e-07 5.125945723331266e-06 1.052829810711497e-06 2.176595177275787e-06
 3.034464480148858e+00 1.597225444334425e-18 1.138693568932408e-17 3.313467497412250e-18 4.070734227224814e-07 5.944663352414419e-06 1.220988112256632e-06 2.524241629131177e-06
 3.035340575267757e+00 1.851265499584670e-18 1.319803742237038e-17 3.840477299915403e-18 4.720912758003918e-07 6.894146238410893e-06 1.416004591444295e-06 2.927414035218526e-06
 3.036216670386655e+00 2.145711018822272e-18 1.529719768878618e-17 4.451308827156241e-18 5.474937484914465e-07 7.995280065084888e-06 1.642169007033899e-06 3.394980940203411e-06
 3.037092765505554e+00 2.486988581940374e-18 1.773023284570017e-17 5.159294112888080e-18 6.349394598906385e-07 9.272286340161470e-06 1.904456270368603e-06 3.937227356806903e-06
 3.037968860624452e+00 2.882546935294881e-18 2.055024647665657e-17 5.979885690089564e-18 7.363519406067054e-07 1.075325518480144e-05 2.208635876239125e-06 4.566081000549092e-06
 3.038844955743351e+00 3.341019571000090e-18 2.381878845141456e-17 6.930993864074525e-18 8.539619437449452e-07 1.247076321849459e-05 2.561398811694640e-06 5.295374657978060e-06
 3.039721050862249e+00 3.872413165164744e-18 2.760719833917557e-17 8.033377630344332e-18 9.903565136612094e-07 1.446259013046698e-05 2.970504734308809e-06 6.141150459478999e-06
 3.040597145981148e+00 4.488325988062345e-18 3.199816249755379e-17 9.311097769645583e-18 1.148535891811202e-06 1.677254969940146e-05 3.444952657255877e-06 7.122012749489512e-06
 3.041473241100046e+00 5.202201053421811e-18 3.708751882343984e-17 1.079204200982285e-17 1.331979511402783e-06 1.945145354064504e-05 3.995178895602098e-06 8.259537315883305e-06
 3.042349336218945e+00 6.029619532281843e-18 4.298634855765421e-17 1.250853371707238e-17 1.544722532478120e-06 2.255822877955798e-05 4.633286627859483e-06 9.578745979965194e-06