DF-ISE text

Info {
  version  = 1.0
  type     = xyplot
  datasets  = [ "hbar_omega" "gx" "gy" "gz" "spx" "spy" "spz" "lumi" ]
  functions = [ hbar_omega gx gy gz spx spy spz lumi ]
}

Data {

 2.896041451362883e+00 6.854376172133793e-28 7.099542314190682e-27 1.720583622291967e-27 4.945835983218005e-18 7.662471170873200e-17 1.547870768894316e-17 3.234975179363106e-17
 2.896917546481781e+00 7.944460888331708e-28 8.228616992082274e-27 1.994216388060797e-27 5.735865081369783e-18 8.886445279452593e-17 1.795121779998292e-17 3.751717855862621e-17
 2.897793641600680e+00 9.207907910753142e-28 9.537254769198419e-27 2.311366512276281e-27 6.652089825516185e-18 1.030593143141642e-16 2.081867540273008e-17 4.351002651413683e-17
 2.898669736719579e+00 1.067228815579188e-27 1.105401271370450e-26 2.678954838791654e-27 7.714668036001222e-18 1.195215967923273e-16 2.414416730592838e-17 5.046014404475228e-17
 2.899545831838477e+00 1.236955734013423e-27 1.281198952883738e-26 3.105002882824120e-27 8.946977420638194e-18 1.386134857377289e-16 2.800085742097857e-17 5.852044019311521e-17
 2.900421926957375e+00 1.433675333029312e-27 1.484954784511695e-26 3.598807879443117e-27 1.037612989747670e-17 1.607550199287439e-16 3.247359640928604e-17 6.786824874516886e-17
 2.901298022076274e+00 1.661680439770038e-27 1.721115138496676e-26 4.171145671541419e-27 1.203356807158190e-17 1.864333324924419e-16 3.766078844244717e-17 7.870922966882365e-17
 2.902174117195173e+00 1.925946601770170e-27 1.994833526897378e-26 4.834505864861284e-27 1.395575698840998e-17 2.162133680822678e-16 4.367655614430067e-17 9.128189373832617e-17
 2.903050212314072e+00 2.232240665602778e-27 2.312083063858248e-26 5.603364381815988e-27 1.618498638246544e-17 2.507503119339705e-16 5.065325134391241e-17 1.058628498867828e-16
 2.903926307432970e+00 2.587246623765365e-27 2.679786813765007e-26 6.494499361996780e-27 1.877030107080643e-17 2.908040042405210e-16 5.874436687636174e-17 1.227728907292297e-16
 2.904802402551868e+00 2.998711476140878e-27 3.105968869853231e-26 7.527357303211425e-27 2.176857996014612e-17 3.372556569636558e-16 6.812791349122982e-17 1.423840501383439e-16
 2.905678497670767e+00 3.475614289149239e-27 3.599929460238426e-26 8.724477433301595e-27 2.524578740578265e-17 3.911272408531002e-16 7.901033616101781e-17 1.651277881399669e-16
 2.906554592789666e+00 4.028362141947804e-27 4.172447902686232e-26 1.011198357375638e-26 2.927842445230225e-17 4.536039691886132e-16 9.163105594842647e-17 1.915044831964473e-16
 2.907430687908564e+00 4.669017235801302e-27 4.836017837191144e-26 1.172015422902854e-26 3.395521188339426e-17 5.260603728878885e-16 1.062677373537200e-16 2.220944407083342e-16
 2.908306783027463e+00 5.411560122813219e-27 5.605119869827507e-26 1.358408334257233e-26 3.937904210783429e-17 6.100905406320312e-16 1.232423970236789e-16 2.575706599211814e-16
 2.909182878146361e+00 6.272194798453857e-27 6.496537577774590e-26 1.574444613926853e-26 4.566924282307522e-17 7.075431892905881e-16 1.429284882135947e-16 2.987136401090860e-16
 2.910058973265260e+00 7.269702315917921e-27 7.529723771691131e-26 1.824838676721265e-26 5.296420225689804e-17 8.205623361932097e-16 1.657591168599925e-16 3.464285517700334e-16
 2.910935068384159e+00 8.425850639245749e-27 8.727225008392472e-26 2.115054710989326e-26 6.142441374220820e-17 9.516344680343046e-16 1.922365700169708e-16 4.017651505978278e-16
 2.911811163503057e+00 9.765869679454393e-27 1.011517361799159e-25 2.451425922058212e-26 7.123600660527521e-17 1.103643244121293e-15 2.229433662806678e-16 4.659408723357453e-16
 2.912687258621956e+00 1.131900188042487e-26 1.172385798304741e-25 2.841292740151489e-26 8.261484104643837e-17 1.279932937429771e-15 2.585550713095609e-16 5.403676165952567e-16
 2.913563353740854e+00 1.311914037004565e-26 1.358838351498762e-25 3.293163008913628e-26 9.581125710002108e-17 1.484382009159063e-15 2.998551603800808e-16 6.266828088797217e-16
 2.914439448859753e+00 1.520556860305641e-26 1.574943875237036e-25 3.816897650353403e-26 1.111155821495793e-16 1.721488435413035e-15 3.477522549506420e-16 7.267854241710854e-16
 2.915315543978652e+00 1.762381763694069e-26 1.825418329967288e-25 4.423925858002729e-26 1.288645181626591e-16 1.996468663175072e-15 4.033001124348823e-16 8.428777645908713e-16
 2.916191639097550e+00 2.042665974935093e-26 2.115727698425205e-25 5.127494514489533e-26 1.494485491626336e-16 2.315372372584062e-15 4.677208089541060e-16 9.775139102336003e-16
 2.917067734216448e+00 2.367526008098726e-26 2.452207269098769e-25 5.942957276616539e-26 1.733205318999887e-16 2.685215570250203e-15 5.424316250832331e-16 1.133655909077808e-15
 2.917943829335347e+00 2.744051143649344e-26 2.842199890610498e-25 6.888109636715270e-26 2.010056587152009e-16 3.114134941623108e-15 6.290762260683971e-16 1.314738942135569e-15
 2.918819924454246e+00 3.180458137309590e-26 3.294216214181348e-25 7.983577272410735e-26 2.331130117730865e-16 3.611566858115869e-15 7.295608224713185e-16 1.524746897453425e-15
 2.919696019573145e+00 3.686270533951760e-26 3.818120421190382e-25 9.253266159858879e-26 2.703489628575333e-16 4.188454977076449e-15 8.460961067613021e-16 1.768300015565094e-15
 2.920572114692043e+00 4.272526499741792e-26 4.425345489022823e-25 1.072488427342280e-25 3.135327135171653e-16 4.857491001729068e-15 9.812458884444679e-16 2.050756534563567e-15
 2.921448209810941e+00 4.952019708125766e-26 5.129142693025060e-25 1.243054625701387e-25 3.636143174388146e-16 5.633393897706314e-15 1.137983497683228e-15 2.378330570942786e-15
 2.922324304929840e+00 5.739578536602286e-26 5.944870789538750e-25 1.440747426306222e-25 4.216955815332665e-16 6.533233708815536e-15 1.319757198261429e-15 2.758228829536744e-15
 2.923200400048739e+00 6.652389667300624e-26 6.890331190968586e-25 1.669881025379817e-25 4.890543055476546e-16 7.576807095839246e-15 1.530566048950512e-15 3.198809150112471e-15
 2.924076495167637e+00 7.710373153432985e-26 7.986156447546771e-25 1.935455749203014e-25 5.671723934640993e-16 8.787072860038791e-15 1.775047882189765e-15 3.709764378564218e-15
 2.924952590286536e+00 8.936617136867404e-26 9.256260513808488e-25 2.243267176800004e-25 6.577684551214715e-16 1.019065703266353e-14 2.058581335567963e-15 4.302335607784322e-15
 2.925828685405434e+00 1.035788170385908e-25 1.072836062614825e-24 2.600032617665570e-25 7.628356152779834e-16 1.181843864215591e-14 2.387404180742840e-15 4.989559479392246e-15
 2.926704780524333e+00 1.200518287483854e-25 1.243458218065390e-24 3.013537704721133e-25 8.846853618931496e-16 1.370622904560843e-14 2.768750552969429e-15 5.786554986823671e-15
 2.927580875643232e+00 1.391446947296761e-25 1.441215981177976e-24 3.492806301673495e-25 1.025998398265408e-15 1.589555976936295e-14 3.211010100205770e-15 6.710856089278045e-15
 2.928456970762130e+00 1.612740764313524e-25 1.670424997188295e-24 4.048297432757701e-25 1.189883617741298e-15 1.843459619076314e-14 3.723912552978781e-15 7.782797453827741e-15
 2.929333065881029e+00 1.869229014240290e-25 1.936087274501115e-24 4.692133532574428e-25 1.379946498402104e-15 2.137919716147499e-14 4.318741775429655e-15 9.025961811768917e-15
 2.930209160999927e+00 2.166509024588102e-25 2.244000344870327e-24 5.438364997253436e-25 1.600368422365132e-15 2.479414388337619e-14 5.008584006517612e-15 1.046769877075298e-14
 2.931085256118826e+00 2.511068326809877e-25 2.600883784652409e-24 6.303276810412041e-25 1.855998664670512e-15 2.875456507145184e-14 5.808615752520673e-15 1.213972649621434e-14
 2.931961351237725e+00 2.910426235790244e-25 3.014525858286984e-24 7.305743935601147e-25 2.152461075441508e-15 3.334758975623378e-14 6.736437664256996e-15 1.407882949864409e-14
 2.932837446356623e+00 3.373297946474592e-25 3.493953484305706e-24 8.467643231212552e-25 2.496277802247667e-15 3.867426408622653e-14 7.812461744080839e-15 1.632766787751834e-14
 2.933713541475521e+00 3.909784728832785e-25 4.049629233156585e-24 9.814330877353591e-25 2.895012774467089e-15 4.485177429848869e-14 9.060360400907639e-15 1.893571582462114e-14
 2.934589636594420e+00 4.531594371920624e-25 4.693679656070494e-24 1.137519573392462e-24 3.357438106189730e-15 5.201602476095682e-14 1.050758723212173e-14 2.196035003308943e-14
 2.935465731713319e+00 5.252296687956540e-25 5.440159927963623e-24 1.318430070624955e-24 3.893727078389032e-15 6.032462780132845e-14 1.218598098914149e-14 2.546811195628632e-14
 2.936341826832217e+00 6.087619652476200e-25 6.305360579881790e-24 1.528112611527797e-24 4.515677945804922e-15 6.996037109618210e-14 1.413246601336818e-14 2.953617168511840e-14
 2.937217921951116e+00 7.055792643474651e-25 7.308163015061028e-24 1.771143129553598e-24 5.236973492097130e-15 8.113523889992021e-14 1.638986455150758e-14 3.425402564784164e-14
 2.938094017070014e+00 8.177944270323391e-25 8.470451567320408e-24 2.052825322418015e-24 6.073482043244566e-15 9.409507557688513e-14 1.900783882045772e-14 3.972546548019580e-14
 2.938970112188913e+00 9.478563474628111e-25 9.817591094495744e-24 2.379306397510289e-24 7.043606561210270e-15 1.091249940300903e-13 2.204398354632820e-14 4.607086137920959e-14
 2.939846207307812e+00 1.098603396603653e-24 1.137898052985494e-23 2.757711225822807e-24 8.168689497598910e-15 1.265556480068326e-13 2.556509301240608e-14 5.342981017227920e-14
 2.940722302426710e+00 1.273325365647491e-24 1.318869447215130e-23 3.196297832162870e-24 9.473482313692141e-15 1.467705062657830e-13 2.964863048988620e-14 6.196420635645379e-14
 2.941598397545609e+00 1.475835261130628e-24 1.528622681633448e-23 3.704637615054994e-24 1.098668999583219e-14 1.702142886299482e-13 3.438443237736993e-14 7.186180366771677e-14
 2.942474492664507e+00 1.710552518594337e-24 1.771735265388188e-23 4.293824229444773e-24 1.274160254492800e-14 1.974027495099240e-13 3.987668453843694e-14 8.334034553109632e-14
 2.943350587783406e+00 1.982599450846500e-24 2.053512725286291e-23 4.976715690860044e-24 1.477682733219633e-14 2.289340241247844e-13 4.624621431465903e-14 9.665235525721326e-14
 2.944226682902304e+00 2.297913035710155e-24 2.380104391947303e-23 5.768214984709963e-24 1.713713843216059e-14 2.655017870250028e-13 5.363314863583007e-14 1.120906913643312e-13
 2.945102778021203e+00 2.663374482920008e-24 2.758637601026200e-23 6.685595304752508e-24 1.987446161730282e-14 3.079105123905129e-13 6.219999670292161e-14 1.299949902369125e-13
 2.945978873140102e+00 3.086959407842608e-24 3.197373238321287e-23 7.748877018753798e-24 2.304901668313166e-14 3.570931718131089e-13 7.213522505929076e-14 1.507591378518438e-13
 2.946854968259000e+00 3.577911889425087e-24 3.705886023397476e-23 8.981264588272674e-24 2.673064223349848e-14 4.141317588939539e-13 8.365740369757097e-14 1.748399349416744e-13
 2.947731063377899e+00 4.146946211031871e-24 4.295273466254474e-23 1.040965297795431e-23 3.100033206986015e-14 4.802810921729056e-13 9.702001441166377e-14 2.027671462181432e-13
 2.948607158496797e+00 4.806480686992334e-24 4.978398057342039e-23 1.206521460628737e-23 3.595201698321645e-14 5.569964200256361e-13 1.125170271718245e-13 2.351551547268924e-13
 2.949483253615696e+00 5.570908677925495e-24 5.770167976513579e-23 1.398407964752669e-23 4.169463114591559e-14 6.459654348017793e-13 1.304893671961228e-13 2.727164777146059e-13
 2.950359348734594e+00 6.456912709533973e-24 6.687862447167329e-23 1.620812453182673e-23 4.835450856136212e-14 7.491454004750549e-13 1.513324149857545e-13 3.162774413407238e-13
 2.951235443853493e+00 7.483828550263676e-24 7.751508836172464e-23 1.878588585198155e-23 5.607816229043057e-14 8.688062105658237e-13 1.755047043153088e-13 3.667963590571877e-13
 2.952111538972392e+00 8.674067193547833e-24 8.984319729501406e-23 2.177361962209390e-23 6.503550759391767e-14 1.007580323553836e-12 2.035380095223672e-13 4.253846135567068e-13
 2.952987634091290e+00 1.005360395408998e-23 1.041319952242377e-22 2.523652900571995e-23 7.542359989586179e-14 1.168520674293543e-12 2.360490440033233e-13 4.933311060642426e-13
 2.953863729210189e+00 1.165254535236334e-23 1.206933158023282e-22 2.925018730778157e-23 8.747096979779875e-14 1.355167835403757e-12 2.737530272662952e-13 5.721306108226169e-13
 2.954739824329087e+00 1.350578615920276e-23 1.398885878389449e-22 3.390218728609387e-23 1.014426505083041e-13 1.571627906089792e-12 3.174794189976370e-13 6.635166585319111e-13
 2.955615919447986e+00 1.565377094004651e-23 1.621367231307234e-22 3.929405277762796e-23 1.176460082840832e-13 1.822662841840876e-12 3.681901662690136e-13 7.694996721313243e-13
 2.956492014566884e+00 1.814337671905907e-23 1.879232588122792e-22 4.554345435956488e-23 1.364375041439697e-13 2.113795212126793e-12 4.270008652974749e-13 8.924111938560792e-13
 2.957368109685783e+00 2.102893602674254e-23 2.178109537542212e-22 5.278677740059760e-23 1.582305356036030e-13 2.451429690609288e-12 4.952053032861625e-13 1.034955176499685e-12
 2.958244204804682e+00 2.437342265845978e-23 2.524520702684479e-22 6.118209854871597e-23 1.835045309372567e-13 2.842993950471571e-12 5.743039202295403e-13 1.200267467212789e-12
 2.959120299923580e+00 2.824982602239429e-23 2.926026091621363e-22 7.091263561567554e-23 2.128154960267878e-13 3.297102064349769e-12 6.660368167997306e-13 1.391984792392096e-12
 2.959996395042479e+00 3.274274407135471e-23 3.391388088129004e-22 8.219074615003612e-23 2.468082458120467e-13 3.823744003411357e-12 7.724220344362972e-13 1.614324761219900e-12
 2.960872490161377e+00 3.795022958338545e-23 3.930762683493352e-22 9.526256196567360e-23 2.862305894156378e-13 4.434505404266051e-12 8.957999497419409e-13 1.872178647807876e-12
 2.961748585280276e+00 4.398593008534496e-23 4.555921122909802e-22 1.104133607720631e-22 3.319497809919507e-13 5.142822438227182e-12 1.038884759789380e-12 2.171218993002838e-12
 2.962624680399174e+00 5.098156812233967e-23 5.280506803811315e-22 1.279737921397936e-22 3.849715981926560e-13 5.964277389637383e-12 1.204824190933293e-12 2.518024392921111e-12
 2.963500775518073e+00 5.908981600382937e-23 6.120333032821182e-22 1.483270936803359e-22 4.464624679434655e-13 6.916941445494186e-12 1.397268744622750e-12 2.920224219353467e-12
 2.964376870636972e+00 6.848762776658263e-23 7.093728139756106e-22 1.719174549302964e-22 5.177751262622968e-13 8.021772237175320e-12 1.620452003506410e-12 3.386666455648009e-12
 2.965252965755870e+00 7.938010107332781e-23 8.221935480663655e-22 1.992597114787931e-22 6.004783765913257e-13 9.303074879507097e-12 1.879283764428580e-12 3.927612340175668e-12
 2.966129060874769e+00 9.200495333168130e-23 9.529577059819729e-22 2.309505809088798e-22 6.963916012750132e-13 1.078903664924225e-11 2.179458047081752e-12 4.554962099199672e-12
 2.967005155993668e+00 1.066377097231934e-22 1.104519088908590e-21 2.676816857737980e-22 8.076247853763271e-13 1.251234706493904e-11 2.527578354317338e-12 5.282516734877567e-12
 2.967881251112566e+00 1.235977163696971e-22 1.280185381233370e-21 3.102546478306096e-22 9.366249332842210e-13 1.451091700890125e-11 2.931302939619403e-12 6.126281627268291e-12
 2.968757346231465e+00 1.432551098726726e-22 1.483790338790909e-21 3.595985829587556e-22 1.086229899194375e-12 1.682871271056983e-11 3.399513277365160e-12 7.104818629043123e-12
 2.969633441350363e+00 1.660388953340052e-22 1.719777458403306e-21 4.167903785855487e-22 1.259730815634987e-12 1.951672293747032e-11 3.942509441908518e-12 8.239654398337940e-12
 2.970509536469262e+00 1.924463091593529e-22 1.993296954785201e-21 4.830781961694434e-22 1.460944493351454e-12 2.263408067015568e-11 4.572236693470956e-12 9.555753952326032e-12
 2.971385631588161e+00 2.230536709851559e-22 2.310318161312271e-21 5.599087116773881e-22 1.694297385209627e-12 2.624936393585695e-11 5.302548255297545e-12 1.108206985878804e-11
 2.972261726707059e+00 2.585289615709263e-22 2.677759807783039e-21 6.489586885754660e-22 1.964922961165532e-12 3.044210441673683e-11 6.149510062681985e-12 1.285217914686145e-11
 2.973137821825958e+00 2.996464011673817e-22 3.103641018465611e-21 7.521715724085051e-22 2.278774636363051e-12 3.530453701921582e-11 7.131754187750372e-12 1.490502194777641e-11
 2.974013916944856e+00 3.473033465315171e-22 3.597256325943588e-21 8.717999056408588e-22 2.642756736557541e-12 4.094362889148509e-11 8.270888714660471e-12 1.728575811423437e-11
 2.974890012063755e+00 4.025398753643265e-22 4.169378520421084e-21 1.010454488458138e-21 3.064876381846041e-12 4.748343252358598e-11 9.591973081661638e-12 2.004676066236455e-11
 2.975766107182654e+00 4.665614856001094e-22 4.832493761658383e-21 1.171161358460809e-21 3.554419629842469e-12 5.506781469354937e-11 1.112406934658916e-11 2.324876788999367e-11
 2.976642202301552e+00 5.407654049582840e-22 5.601074084845020e-21 1.357427832828818e-21 4.122155753090634e-12 6.386362129088423e-11 1.290088150251805e-11 2.696221951549764e-11
 2.977518297420450e+00 6.267710849630550e-22 6.491893247844845e-21 1.573319054325969e-21 4.780574144399626e-12 7.406434763703987e-11 1.496149690720945e-11 3.126880622954965e-11
 2.978394392539349e+00 7.264555449630882e-22 7.524392813180465e-21 1.823546711760887e-21 5.544159061526609e-12 8.589439504227619e-11 1.735124613625772e-11 3.626326674668684e-11
 2.979270487658248e+00 8.419943375353061e-22 8.721106454506075e-21 2.113571871231031e-21 6.429708255013340e-12 9.961400723424192e-11 2.012270017490174e-11 4.205547188805233e-11
 2.980146582777147e+00 9.759090293451397e-22 1.010815174808197e-20 2.449724162447571e-21 7.456702488311581e-12 1.155249952492159e-10 2.333682688460119e-11 4.877284154070954e-11
 2.981022677896045e+00 1.131122233736021e-21 1.171580018263110e-20 2.839339921390173e-21 8.647734078840579e-12 1.339773767212146e-10 2.706433218414009e-11 5.656314766139843e-11
 2.981898773014943e+00 1.311021396141636e-21 1.357913782811736e-20 3.290922304273576e-21 1.002900388695883e-11 1.553770756190683e-10 3.138721544835906e-11 6.559776498479541e-11
 2.982774868133842e+00 1.519532724443766e-21 1.573883108260690e-20 3.814326867328528e-21 1.163089768549745e-11 1.801948518084768e-10 3.640057333981453e-11 7.607544094459627e-11
 2.983650963252741e+00 1.761206877818614e-21 1.824201420976936e-20 4.420976662708218e-21 1.348865458871304e-11 2.089766568697082e-10 4.221469175368076e-11 8.822666773736733e-11
 2.984527058371639e+00 2.041318284245312e-21 2.114331803767799e-20 5.124111545025187e-21 1.564314224458666e-11 2.423556439755290e-10 4.895747189395652e-11 1.023187527046908e-10
 2.985403153490538e+00 2.365980254301672e-21 2.450606227047097e-20 5.939077129684827e-21 1.814175584293492e-11 2.810660960193471e-10 5.677724384912910e-11 1.186616985704704e-10
 2.986279248609436e+00 2.742278403632008e-21 2.840363743534657e-20 6.883659709597441e-21 2.103946071544199e-11 3.259595783803159e-10 6.584602955948333e-11 1.376150228850804e-10
 2.987155343728335e+00 3.178425296066260e-21 3.292110662623847e-20 7.978474439910513e-21 2.440000146238594e-11 3.780236716486270e-10 7.636332695374189e-11 1.595956666882516e-10
 2.988031438847234e+00 3.683939682519525e-21 3.815706200267034e-20 9.247415263001799e-21 2.829730420400347e-11 4.384036963868893e-10 8.856049849713854e-11 1.850871663626771e-10
 2.988907533966132e+00 4.269854247615438e-21 4.422577656244329e-20 1.071817639348192e-20 3.281710280268770e-11 5.084279078206823e-10 1.027058606885489e-10 2.146502904373062e-10
 2.989783629085031e+00 4.948956398171603e-21 5.125969815129960e-20 1.242285674478866e-20 3.805882482900165e-11 5.896367146809265e-10 1.191105864633847e-10 2.489353753244377e-10
 2.990659724203929e+00 5.736067348840997e-21 5.941234014220562e-20 1.439866048919692e-20 4.413777875817890e-11 6.838165649417122e-10 1.381355503407888e-10 2.886966313468933e-10
 2.991535819322828e+00 6.648365596058975e-21 6.886163187442434e-20 1.668870904123058e-20 5.118769051007162e-11 7.930392438566136e-10 1.601992668915734e-10 3.348087337527528e-10
 2.992411914441726e+00 7.705761840245899e-21 7.981380197706730e-20 1.934298218634553e-20 5.936364513014510e-11 9.197074487531266e-10 1.857870971535539e-10 3.882860636789419e-10
 2.993288009560625e+00 8.931333539098369e-21 9.250787933227716e-20 2.241940889540614e-20 6.884549832109878e-11 1.066607643115946e-09 2.154619255122479e-10 4.503050223164309e-10
 2.994164104679523e+00 1.035182857630316e-20 1.072209099137223e-19 2.598513163250640e-20 7.984183287028307e-11 1.236971352616841e-09 2.498765419116188e-10 5.222299091329144e-10
 2.995040199798422e+00 1.199824903846889e-20 1.242740033602360e-19 3.011797175021894e-20 9.259454700408843e-11 1.434546251445353e-09 2.897880017715132e-10 6.056429334069848e-10
 2.995916294917321e+00 1.390652784151162e-20 1.440393412542275e-19 3.490812795528779e-20 1.073841756013691e-10 1.663678602657793e-09 3.360742794932399e-10 7.023790192508008e-10
 2.996792390036219e+00 1.611831297421766e-20 1.669483000641963e-19 4.046014491466376e-20 1.245360613187101e-10 1.929408866017086e-09 3.897535818869567e-10 8.145661697409176e-10
 2.997668485155118e+00 1.868187647553374e-20 1.935008660390552e-19 4.689519496779903e-20 1.444275113760859e-10 2.237582576444771e-09 4.520067463655325e-10 9.446722780621295e-10
 2.998544580274016e+00 2.165316798453757e-20 2.242765475397699e-19 5.435372274488734e-20 1.674960974332111e-10 2.594978932117116e-09 5.242032166057644e-10 1.095559415385364e-09
 2.999420675392915e+00 2.509703585745240e-20 2.599470229765293e-19 6.299851041143591e-20 1.942492811316393e-10 3.009459920799043e-09 6.079311670719127e-10 1.270546789667532e-09
 3.000296770511814e+00 2.908864250334809e-20 3.012908004005794e-19 7.301823044005212e-20 2.252755770385323e-10 3.490143264792307e-09 7.050324390597010e-10 1.473483760296847e-09
 3.001172865630712e+00 3.371510482915427e-20 3.492102087058927e-19 8.463156345100469e-20 2.612574985464071e-10 4.047602988815194e-09 8.176430567584535e-10 1.708834514706685e-09
 3.002048960749611e+00 3.907739559780486e-20 4.047510912851133e-19 9.809197099621174e-20 3.029865715030477e-10 4.694102022754998e-09 9.482402145732518e-10 1.981776269610433e-09
 3.002925055868509e+00 4.529254719799154e-20 4.691256319676363e-19 1.136932274560157e-19 3.513807458297311e-10 5.443861955908193e-09 1.099696769297711e-09 2.298313157011878e-09
 3.003801150987408e+00 5.249620592440231e-20 5.437388114325453e-19 1.317758317864174e-19 4.075045881346397e-10 6.313375876546073e-09 1.275344435812683e-09 2.665408300164466e-09
 3.004677246106306e+00 6.084559251749649e-20 6.302190715271045e-19 1.527344390578797e-19 4.725926995016338e-10 7.321771178388801e-09 1.479047076436756e-09 3.091136984775730e-09
 3.005553341225205e+00 7.052293357897521e-20 7.304538567642105e-19 1.770264739850055e-19 5.480768735795825e-10 8.491230314704744e-09 1.715285696087390e-09 3.584864294790572e-09
 3.006429436344104e+00 8.173943875622042e-20 8.466308087192705e-19 2.051821144439868e-19 6.356175923713020e-10 9.847478755403347e-09 1.989257012899107e-09 4.157451120224585e-09
 3.007305531463002e+00 9.473991050112065e-20 9.812855124289793e-19 2.378158628765322e-19 7.371405525387008e-10 1.142035088077087e-08 2.306987772568341e-09 4.821493068625971e-09
 3.008181626581901e+00 1.098080870151428e-19 1.137356836897424e-18 2.756399581358959e-19 8.548790256957250e-10 1.324444625985224e-08 2.675467321005398e-09 5.591597535517788e-09
 3.009057721700799e+00 1.272728349951051e-19 1.318251077564404e-18 3.194799205002953e-19 9.914229844906772e-10 1.535989074966807e-08 3.102801351500878e-09 6.484705028553208e-09
 3.009933816819698e+00 1.475153273418885e-19 1.527916300703022e-18 3.702925691375825e-19 1.149776075105500e-09 1.781321915718450e-08 3.598390208386627e-09 7.520461813558875e-09
 3.010809911938596e+00 1.709773624922034e-19 1.770928512381520e-18 4.291869052689788e-19 1.333421689396168e-09 2.065839887995330e-08 4.173135669337343e-09 8.721652079562271e-09
 3.011686007057495e+00 1.981710069507150e-19 2.052591532708737e-18 4.974483168266907e-19 1.546399590061390e-09 2.395801704241833e-08 4.839680754897673e-09 1.011469912912580e-08
 3.012562102176394e+00 2.296897714801515e-19 2.379052755215585e-18 5.765666328956148e-19 1.793394774359832e-09 2.778465724126932e-08 5.612687840313373e-09 1.173024661864751e-08
 3.013438197295292e+00 2.662215648808986e-19 2.757437317936489e-18 6.682686402552426e-19 2.079840531104285e-09 3.222249618400783e-08 6.509161187272113e-09 1.360383263412808e-08
 3.014314292414191e+00 3.085637080895334e-19 3.196003614611512e-18 7.745557717285305e-19 2.412037957867611e-09 3.736915534182781e-08 7.548820990252720e-09 1.577667142998271e-08
 3.015190387533089e+00 3.576403362947108e-19 3.704323540203927e-18 8.977477889253696e-19 2.797294567405506e-09 4.333784834739140e-08 8.754537165334584e-09 1.829656002671050e-08
 3.016066482651988e+00 4.145225688902439e-19 4.293491404784992e-18 1.040533412803315e-18 3.244085032201672e-09 5.025987137349626e-08 1.015283242345653e-08 2.121892960971815e-08
 3.016942577770886e+00 4.804518874964133e-19 4.976366075557235e-18 1.206029007112456e-18 3.762237603003181e-09 5.828749127303554e-08 1.177446569413486e-08 2.460806485672453e-08
 3.017818672889785e+00 5.568672323016642e-19 5.767851632044104e-18 1.397846595557791e-18 4.363150301963236e-09 6.759729501017188e-08 1.365510873311296e-08 2.853851801508269e-08
 3.018694768008684e+00 6.454364081324354e-19 6.685222660056954e-18 1.620172697229414e-18 5.060041645937113e-09 7.839407405932345e-08 1.583613079711035e-08 3.309674883412364e-08
 3.019570863127582e+00 7.480924857259753e-19 7.748501284367517e-18 1.877859700977424e-18 5.868241415035097e-09 9.091532921620195e-08 1.836550864598413e-08 3.838302642574039e-08
 3.020446958246481e+00 8.670759927070294e-19 8.980894169270083e-18 2.176531773085605e-18 6.805527862387473e-09 1.054364949119872e-07 2.129888188936797e-08 4.451363488791420e-08
 3.021323053365379e+00 1.004983815137881e-18 1.040929902510394e-17 2.522707609807894e-18 7.892518782625874e-09 1.222769979483353e-07 2.470077689193899e-08 5.162343120763339e-08
 3.022199148484278e+00 1.164825876978813e-18 1.206489167586893e-17 2.923942713994144e-18 9.153125041289178e-09 1.418072839252868e-07 2.864602615916445e-08 5.986881170858015e-08
 3.023075243603176e+00 1.350090834559860e-18 1.398380650142790e-17 3.388994301172543e-18 1.061507654128448e-08 1.644569659199796e-07 3.322141442526899e-08 6.943115229551102e-08
 3.023951338722075e+00 1.564822219930626e-18 1.620792510582568e-17 3.928012434376849e-18 1.231053219589326e-08 1.907242746596608e-07 3.852758765181263e-08 8.052079816912224e-08
 3.024827433840974e+00 1.813706695016721e-18 1.878579042544657e-17 4.552761559487119e-18 1.427678732565958e-08 2.211870180607290e-07 4.468126692837042e-08 9.338169077158633e-08
 3.025703528959872e+00 2.102176342847991e-18 2.177366622864533e-17 5.276877276389579e-18 1.655709403947404e-08 2.565152912062095e-07 5.181781597356347e-08 1.082967337397490e-07
 3.026579624078771e+00 2.436527228504139e-18 2.523676513187458e-17 6.116163950335959e-18 1.920161264541358e-08 2.974862163374246e-07 6.009421871262346e-08 1.255940158984872e-07
 3.027455719197669e+00 2.824056817535063e-18 2.925067193546765e-17 7.088939659284157e-18 2.226851501908059e-08 3.450010370886046e-07 6.969253242788876e-08 1.456540281785246e-07
 3.028331814316568e+00 3.273223251205244e-18 3.390299334537081e-17 8.216436006178206e-18 2.582526419967718e-08 4.001049429776898e-07 8.082389243943269e-08 1.689180332055999e-07
 3.029207909435466e+00 3.793829954977569e-18 3.929527008841564e-17 9.523261522655893e-18 2.995009836046718e-08 4.640100602229794e-07 9.373315640483943e-08 1.958977716627620e-07
 3.030084004554365e+00 4.397239609580481e-18 4.554519315577813e-17 1.103793877863192e-17 3.473375179567527e-08 5.381221146014657e-07 1.087042903961300e-07 2.271867189310903e-07
 3.030960099673264e+00 5.096622154898998e-18 5.278917254747075e-17 1.279352692098091e-17 4.028145077943511e-08 6.240713528371854e-07 1.260666152284342e-07 2.634731396150183e-07
 3.031836194792162e+00 5.907242239747036e-18 6.118531458456788e-17 1.482834322916258e-17 4.671522819850782e-08 7.237484026789261e-07 1.462020504371809e-07 3.055552271048716e-07
 3.032712289911061e+00 6.846792391553231e-18 7.091687277356839e-17 1.718679943684519e-17 5.417660787232659e-08 8.393458604593354e-07 1.695535152451245e-07 3.543586611922622e-07
 3.033588385029959e+00 7.935779177907241e-18 8.219624754337199e-17 1.992037107354952e-17 6.282971760564663e-08 9.734065209103775e-07 1.966346713099061e-07 4.109569699419767e-07
 3.034464480148858e+00 9.197970788553088e-18 9.526962215543659e-17 2.308872098372481e-17 7.286489944954991e-08 1.128879310114163e-06 2.280412215568942e-07 4.765951437068690e-07
 3.035340575267757e+00 1.066091580702452e-17 1.104223359732718e-16 2.676100154586131e-17 8.450289658324082e-08 1.309184151907566e-06 2.644640136299319e-07 5.527170207069130e-07
 3.036216670386655e+00 1.235654449495835e-17 1.279851123715980e-16 3.101736401468963e-17 9.799970891248079e-08 1.518287194560281e-06 3.067042361872106e-07 6.409970465533243e-07
 3.037092765505554e+00 1.432186571310994e-17 1.483412772195078e-16 3.595070793034648e-17 1.136522241896808e-07 1.760788052431253e-06 3.556910423039189e-07 7.433771063082844e-07
 3.037968860624452e+00 1.659977469053789e-17 1.719351254930554e-16 4.166870877828732e-17 1.318047485191012e-07 2.042020981590621e-06 4.125019876300762e-07 8.621092392465994e-07
 3.038844955743351e+00 1.923998927289555e-17 1.992816186326491e-16 4.829616815705217e-17 1.528565798935255e-07 2.368172214885675e-06 4.783867328654278e-07 9.998051758815427e-07
 3.039721050862249e+00 2.230013508505724e-17 2.309776243065640e-16 5.597773775032131e-17 1.772707913513083e-07 2.746416037371965e-06 5.547945319151213e-07 1.159493786879465e-06
 3.040597145981148e+00 2.584700329364992e-17 2.677149439077250e-16 6.488107655867329e-17 2.055844169495285e-07 3.185072595242268e-06 6.434061103596163e-07 1.344687707517138e-06
 3.041473241100046e+00 2.995800842236101e-17 3.102954121311694e-16 7.520051030311140e-17 2.384202646050745e-07 3.693790909430333e-06 7.461706354407086e-07 1.559460603158705e-06
 3.042349336218945e+00 3.472287803948604e-17 3.596483982070770e-16 8.716127287339489e-17 2.765006156404003e-07 4.283761119469815e-06 8.653485907591322e-07 1.808536775289783e-06