DF-ISE text

Info {
  version  = 1.0
  type     = xyplot
  datasets  = [ "hbar_omega" "gx" "gy" "gz" "spx" "spy" "spz" "lumi" ]
  functions = [ hbar_omega gx gy gz spx spy spz lumi ]
}

Data {

 7.953601456684689e-01 2.540065492511182e-36 2.795146046638703e-36 2.627399500695167e-36 1.421144177812157e-27 1.581863392657858e-27 1.475958743646168e-27 1.492988771372061e-27
 7.959439655183438e-01 3.030871562040570e-36 3.335240248522872e-36 3.135080749789571e-36 1.698236210152119e-27 1.890292156747473e-27 1.763738417455529e-27 1.784088928118374e-27
 7.965277853682187e-01 3.616515950064039e-36 3.979696700825444e-36 3.740861103569571e-36 2.029354036603845e-27 2.258856568788187e-27 2.107627699597834e-27 2.131946101663288e-27
 7.971116052180935e-01 4.315324610695936e-36 4.748681701755904e-36 4.463696609755883e-36 2.425031081554589e-27 2.699281293101664e-27 2.518566296309533e-27 2.547626223655261e-27
 7.976954250679684e-01 5.149164760330813e-36 5.666258435368501e-36 5.326206336087511e-36 2.897854433362654e-27 3.225576909757813e-27 3.009626789112986e-27 3.044352710744484e-27
 7.982792449178433e-01 6.144129196114465e-36 6.761140011227916e-36 6.355380217428252e-36 3.462865231978060e-27 3.854485582600596e-27 3.596430465679249e-27 3.637927093419302e-27
 7.988630647677182e-01 7.331352855688749e-36 8.067588025390833e-36 7.583423690943228e-36 4.138037115643346e-27 4.606013614166109e-27 4.297644220566509e-27 4.347231650125322e-27
 7.994468846175932e-01 8.747987173705524e-36 9.626484764554282e-36 9.048765553504877e-36 4.944847944683054e-27 5.504067826528044e-27 5.135574330812485e-27 5.194830034007861e-27
 8.000307044674680e-01 1.043836272927495e-35 1.148661260984595e-35 1.079726058396160e-35 5.908962987160458e-27 6.577216009391273e-27 6.136875992559437e-27 6.207684996370388e-27
 8.006145243173429e-01 1.245537657161428e-35 1.370618068163476e-35 1.288362456862341e-35 7.061051296315211e-27 7.859595622814192e-27 7.333401186764078e-27 7.418016035297826e-27
 8.011983441672178e-01 1.486214764314268e-35 1.635464650489042e-35 1.537314664207579e-35 8.437761245941172e-27 9.391999657268881e-27 8.763211841685317e-27 8.864324248298457e-27
 8.017821640170927e-01 1.773399211024789e-35 1.951488970824751e-35 1.834373253491697e-35 1.008288625195980e-26 1.122317418832400e-26 1.047179051718765e-26 1.059261698582382e-26
 8.023659838669676e-01 2.116078042452365e-35 2.328580578799241e-35 2.188834267684483e-35 1.204875775735523e-26 1.341136889622594e-26 1.251348711811955e-26 1.265787125723357e-26
 8.029498037168424e-01 2.524974988491030e-35 2.778540111564160e-35 2.611790146194393e-35 1.439790978577844e-26 1.602618986623581e-26 1.495324765096231e-26 1.512578243432552e-26
 8.035336235667173e-01 3.012886072776509e-35 3.315448605605972e-35 3.116476872979514e-35 1.720506800633653e-26 1.915081359958256e-26 1.786868000829669e-26 1.807485387140526e-26
 8.041174434165922e-01 3.595080078372711e-35 3.956108178328319e-35 3.718688211278086e-35 2.055952657307309e-26 2.288463265309843e-26 2.135252248471295e-26 2.159889390362815e-26
 8.047012632664671e-01 4.289776403980011e-35 4.720567871930936e-35 4.437269989746680e-35 2.456798833564305e-26 2.734641705335532e-26 2.551559353647955e-26 2.580999964182598e-26
 8.052850831163419e-01 5.118715266774447e-35 5.632751117629214e-35 5.294709910344839e-35 2.935795875490912e-26 3.267809203499996e-26 3.049031660293589e-26 3.084212246428166e-26
 8.058689029662168e-01 6.107838098386508e-35 6.721204458919728e-35 6.317841338083913e-35 3.508180146732218e-26 3.904925225467367e-26 3.643493209694393e-26 3.685532860631326e-26
 8.064527228160917e-01 7.288099429532496e-35 8.019990967960370e-35 7.538683100347695e-35 4.192158448502649e-26 4.666255605477502e-26 4.353853052646060e-26 4.404089035542070e-26
 8.070365426659666e-01 8.696435674381265e-35 9.569756318000710e-35 8.995441580566391e-35 5.009487116387231e-26 5.576017134027568e-26 5.202706682440386e-26 5.262736977618396e-26
 8.076203625158416e-01 1.037692113669853e-34 1.141900087892976e-34 1.073370647083611e-34 5.986164011858291e-26 6.663147807692826e-26 6.217054716998662e-26 6.288788845516592e-26
 8.082041823657165e-01 1.238214741988307e-34 1.362559765156577e-34 1.280787760963272e-34 7.153255416875657e-26 7.962227238412353e-26 7.429161687398787e-26 7.514881447562266e-26
 8.087880022155913e-01 1.477486941562683e-34 1.625860355114856e-34 1.528286756381076e-34 8.547884130300548e-26 9.514576495130735e-26 8.877582245887362e-26 8.980014290439548e-26
 8.093718220654662e-01 1.762996938997923e-34 1.940042073247630e-34 1.823613324501652e-34 1.021441019157237e-25 1.136957235719352e-25 1.060838743092853e-25 1.073078999323147e-25
 8.099556419153411e-01 2.103680064226588e-34 2.314937560567519e-34 2.176010014964987e-34 1.220584178321060e-25 1.358621777781830e-25 1.267662998924280e-25 1.282289651675723e-25
 8.105394617652160e-01 2.510198409326454e-34 2.762279626566235e-34 2.596505510096049e-34 1.458552118402104e-25 1.623501850414513e-25 1.514809535745619e-25 1.532287834854079e-25
 8.111232816150908e-01 2.995274533622049e-34 3.296068465925336e-34 3.098259803649083e-34 1.742913939221953e-25 1.940022553695266e-25 1.810139399070490e-25 1.831025297329236e-25
 8.117071014649657e-01 3.574089660139465e-34 3.933009842984230e-34 3.696976088284401e-34 2.082714349015991e-25 2.318251474768452e-25 2.163046158117393e-25 2.188003993967279e-25
 8.122909213148406e-01 4.264758827156500e-34 4.693037959351553e-34 4.411392244055280e-34 2.488761331242942e-25 2.770218887302797e-25 2.584754668137566e-25 2.614578295561101e-25
 8.128747411647155e-01 5.088897867403147e-34 5.599939370759123e-34 5.263867311816909e-34 2.973969890387170e-25 3.310300371995041e-25 3.088678074743215e-25 3.124316112375142e-25
 8.134585610145904e-01 6.072299961834176e-34 6.682097482276010e-34 6.281081308663994e-34 3.553772808827345e-25 3.955674026516624e-25 3.690844413967702e-25 3.733430416437224e-25
 8.140423808644652e-01 7.245742944789064e-34 7.973380925333859e-34 7.494870290325987e-34 4.246611477910378e-25 4.726866805371399e-25 4.410406375051459e-25 4.461294886111079e-25
 8.146262007143401e-01 8.645952630147242e-34 9.514203623816664e-34 8.943222798962111e-34 5.074522412851462e-25 5.648407364599265e-25 5.270250437648800e-25 5.331060071699842e-25
 8.152100205642150e-01 1.031675231189675e-33 1.135278973072459e-33 1.067146888652671e-33 6.063838103955236e-25 6.749606173258004e-25 6.297724755391081e-25 6.370389677534775e-25
 8.157938404140899e-01 1.231043442024822e-33 1.354668302987080e-33 1.273369893196103e-33 7.246024492682217e-25 8.065487700848345e-25 7.525508934014862e-25 7.612340375848475e-25
 8.163776602639649e-01 1.468939726847492e-33 1.616454804946416e-33 1.519445666361454e-33 8.658681705890673e-25 9.637904326013510e-25 8.992653364652246e-25 9.096413132185478e-25
 8.169614801138397e-01 1.752809812373834e-33 1.928831926582561e-33 1.813075938168676e-33 1.034673987332825e-24 1.151686739073047e-24 1.074582116487394e-24 1.086980947631089e-24
 8.175452999637146e-01 2.091538373703547e-33 2.301576567173828e-33 2.163450861780990e-33 1.236388805722126e-24 1.376213772957738e-24 1.284077222313342e-24 1.298893266997736e-24
 8.181291198135895e-01 2.495727128305709e-33 2.746355098614419e-33 2.581536669079773e-33 1.477428173588436e-24 1.644512625509140e-24 1.534413654126278e-24 1.552118151074618e-24
 8.187129396634644e-01 2.978026676006455e-33 3.277088529711348e-33 3.080418920167582e-33 1.765458314137443e-24 1.965116504010756e-24 1.833553326943580e-24 1.854709381697260e-24
 8.192967595133392e-01 3.553532472426093e-33 3.910388244392984e-33 3.675712091394139e-33 2.109639933601262e-24 2.348222111981994e-24 2.191010282107679e-24 2.216290775896979e-24
 8.198805793632141e-01 4.240257330924328e-33 4.666075953634760e-33 4.386048323138083e-33 2.520919556067675e-24 2.806013931477280e-24 2.618153259111828e-24 2.648362248885594e-24
 8.204643992130890e-01 5.059695243745649e-33 5.567804137117147e-33 5.233660626578704e-33 3.012377650129396e-24 3.353051719872880e-24 3.128567249747730e-24 3.164665539916669e-24
 8.210482190629639e-01 6.037494171716701e-33 6.643796396365483e-33 6.245078805639731e-33 3.599644617956437e-24 4.006733543734644e-24 3.738485532179354e-24 3.781621231290145e-24
 8.216320389128388e-01 7.204258863009800e-33 7.927730894842282e-33 7.451959878734246e-33 4.301397875376886e-24 4.787849074391629e-24 4.467305923764422e-24 4.518850957844312e-24
 8.222158587627136e-01 8.596508831967341e-33 9.459794539712018e-33 8.892078995373834e-33 5.139955830189779e-24 5.721240740100504e-24 5.338207669543330e-24 5.399801413277872e-24
 8.227996786125885e-01 1.025782148618625e-32 1.128794090497759e-32 1.061051186691291e-32 6.141987647206379e-24 6.836593759424136e-24 6.378888583434945e-24 6.452489996688486e-24
 8.233834984624634e-01 1.224019618607001e-32 1.346939127374689e-32 1.266104572598915e-32 7.339361370409708e-24 8.169380178731520e-24 7.622445883085450e-24 7.710395810742226e-24
 8.239673183123383e-01 1.460568193731203e-32 1.607242578819460e-32 1.510786298327585e-32 8.770157372204398e-24 9.761986933863565e-24 9.108428728593735e-24 9.213524344887233e-24
 8.245511381622133e-01 1.742831966980788e-32 1.917852077761115e-32 1.802755028695675e-32 1.047987935689436e-23 1.166506380771529e-23 1.088409593527511e-23 1.100967969996159e-23
 8.251349580120881e-01 2.079645990468037e-32 2.288489917209939e-32 2.151149587712594e-32 1.252290142743435e-23 1.393913414782291e-23 1.300591885483124e-23 1.315598481002950e-23
 8.257187778619630e-01 2.481552836276067e-32 2.730757384127387e-32 2.566875028302720e-32 1.496419723089568e-23 1.665651956334770e-23 1.554137721521564e-23 1.572069800315300e-23
 8.263025977118379e-01 2.961132609091095e-32 3.258497912859403e-32 3.062943991623810e-32 1.788140616764189e-23 1.990363980478396e-23 1.857110502500188e-23 1.878538366580924e-23
 8.268864175617128e-01 3.533396741602674e-32 3.888230426583486e-32 3.654884042169598e-32 2.136730236712431e-23 2.378376095973637e-23 2.219145477937360e-23 2.244750603541143e-23
 8.274702374115877e-01 4.216257900430392e-32 4.639666432516316e-32 4.361223730275167e-32 2.553274494026693e-23 2.842027935353986e-23 2.651756150589213e-23 2.682352859989964e-23
 8.280540572614625e-01 5.031090713054103e-32 5.536327058626778e-32 5.204072598286450e-32 3.051020332182484e-23 3.396064557759599e-23 3.168700408187709e-23 3.205261766043263e-23
 8.286378771113374e-01 6.003400869485429e-32 6.606279348387944e-32 6.209813287674307e-32 3.645796980245437e-23 4.058105342268156e-23 3.786418024690592e-23 3.830106782401395e-23
 8.292216969612123e-01 7.163623545237893e-32 7.883014863637979e-32 7.409927413847302e-32 4.356519320094629e-23 4.849204281632904e-23 4.524553442745082e-23 4.576759014824205e-23
 8.298055168110872e-01 8.548076140755684e-32 9.406498100794394e-32 8.841981063221286e-32 5.205789373690297e-23 5.794519492600283e-23 5.406580460757505e-23 5.468963109016028e-23
 8.303893366609620e-01 1.020009516359767e-31 1.122441754195952e-31 1.055080076434751e-31 6.220615036322203e-23 6.924113231722908e-23 6.460548688206462e-23 6.535092318750524e-23
 8.309731565108369e-01 1.217139284461634e-31 1.339367850632937e-31 1.258987674805748e-31 7.433268909815939e-23 8.273907855233686e-23 7.719975504671278e-23 7.809050756573633e-23
 8.315569763607118e-01 1.452367595857743e-31 1.598218453735423e-31 1.502303742731418e-31 8.882314544358001e-23 9.886828120017501e-23 9.224911884551631e-23 9.331351516309045e-23
 8.321407962105867e-01 1.733057752856952e-31 1.907096309436334e-31 1.792644751860545e-31 1.061383272059477e-22 1.181416614769557e-22 1.102321597776005e-22 1.115040494868346e-22
 8.327246160604617e-01 2.067996188911380e-31 2.275670209662557e-31 2.139099235907339e-31 1.268288676417451e-22 1.411721245367151e-22 1.317207494251291e-22 1.332405805345298e-22
 8.333084359103365e-01 2.467667527183023e-31 2.715477673060012e-31 2.552512306441561e-31 1.515527348518541e-22 1.686920490279892e-22 1.573982341977756e-22 1.592143393592063e-22
 8.338922557602114e-01 2.944582802580540e-31 3.240286128014881e-31 3.045825160046189e-31 1.810961541663142e-22 2.015765756208023e-22 1.880811647090991e-22 1.902512981654052e-22
 8.344760756100863e-01 3.513671122915937e-31 3.866523905530272e-31 3.634480205795601e-31 2.163986087792582e-22 2.408714349989356e-22 2.247452607041740e-22 2.273384348274560e-22
 8.350598954599612e-01 4.192747030985378e-31 4.613794535127834e-31 4.336904496451131e-31 2.585827135639374e-22 2.878262001471533e-22 2.685564371294155e-22 2.716551169468354e-22
 8.356437153098361e-01 5.003068199438369e-31 5.505490445011564e-31 5.175086598319412e-31 3.089899119422348e-22 3.439340202304233e-22 3.209078778563457e-22 3.246106033430013e-22
 8.362275351597109e-01 5.970000918472059e-31 6.569525279916800e-31 6.175264960131376e-31 3.692231308281991e-22 4.109790994456360e-22 3.834643358573601e-22 3.878888553770650e-22
 8.368113550095858e-01 7.123814211222847e-31 7.839207763813355e-31 7.368749332170855e-31 4.411977498972462e-22 4.910934304779010e-22 4.582150683967601e-22 4.635020829239691e-22
 8.373951748594607e-01 8.500627438893739e-31 9.354284466217403e-31 8.792900952512221e-31 5.272025057854809e-22 5.868245864423282e-22 5.475370903493931e-22 5.538547275257341e-22
 8.379789947093356e-01 1.014354106324534e-30 1.116218411904695e-30 1.049230218804462e-30 6.299722677016031e-22 7.012167267933171e-22 6.542707568209067e-22 6.618199171052757e-22
 8.385628145592104e-01 1.210398596855807e-30 1.331950244130818e-30 1.252015224960612e-30 7.527749983798037e-22 8.379073928152019e-22 7.818100782479217e-22 7.908308231476424e-22
 8.391466344090853e-01 1.444333358809382e-30 1.589377395900618e-30 1.493993267874938e-30 8.995156653158352e-22 1.001243170327701e-21 9.342106395661508e-22 9.449898250698955e-22
 8.397304542589602e-01 1.723481724570875e-30 1.896558629331140e-30 1.782739475003844e-30 1.074860406149136e-21 1.196417897107563e-21 1.116318554741729e-21 1.129198952666143e-21
 8.403142741088351e-01 2.056582486725985e-30 2.263110311252425e-30 2.127293101179157e-30 1.284384896014323e-21 1.429637809314710e-21 1.333924556759492e-21 1.349315754029508e-21
 8.408980939587100e-01 2.454063484393819e-30 2.700507473853486e-30 2.538440521545795e-30 1.534751634160602e-21 1.708318877707409e-21 1.593948122316409e-21 1.612339544728140e-21
 8.414819138085849e-01 2.928368070465369e-30 3.222443066683349e-30 3.029052923586579e-30 1.833921786586334e-21 2.041322607861446e-21 1.904657485380826e-21 1.926633959942869e-21
 8.420657336584598e-01 3.494344681164209e-30 3.845256647887820e-30 3.614489271090014e-30 2.191408320095499e-21 2.439237801516789e-21 2.275932534813809e-21 2.302192885475366e-21
 8.426495535083347e-01 4.169711705089815e-30 4.588445936715768e-30 4.313077156591279e-30 2.618578475975239e-21 2.914717237433265e-21 2.719578954676728e-21 2.750958222695077e-21
 8.432333733582096e-01 4.975612206556688e-30 5.475277243743317e-30 5.146686597531596e-30 3.129015200158596e-21 3.482879976204005e-21 3.249703595018543e-21 3.287199590460381e-21
 8.438171932080845e-01 5.937275871425662e-30 6.533513891176042e-30 6.141414741495900e-30 3.738949021142524e-21 4.161792079861041e-21 3.883163007639614e-21 3.927968036214393e-21
 8.444010130579593e-01 7.084808900831154e-30 7.796285429936260e-30 7.328402918525326e-30 4.467774106667952e-21 4.973041030138761e-21 4.640099407453726e-21 4.693638181420147e-21
 8.449848329078342e-01 8.454136584362586e-30 9.303124868706735e-30 8.744811622397636e-30 5.338664906440002e-21 5.942422108195722e-21 5.544581099567065e-21 5.608556038067596e-21
 8.455686527577091e-01 1.008812806480290e-29 1.110120639072243e-29 1.043498394768076e-29 6.379312986053104e-21 7.100758558135603e-21 6.625367733424400e-21 6.701813092537702e-21
 8.461524726075840e-01 1.203793851115434e-29 1.324682231160406e-29 1.245183391013164e-29 7.622807478451096e-21 8.484881609974215e-21 7.916824713923150e-21 8.008171267449486e-21
 8.467362924574589e-01 1.436461072402036e-29 1.580714552247812e-29 1.485850311940543e-29 9.108687145173096e-21 1.013880151998695e-20 9.460015841427649e-21 9.569168168862566e-21
 8.473201123073337e-01 1.714098632062224e-29 1.886233260159307e-29 1.773033767554607e-29 1.088419749546505e-20 1.211510685920723e-20 1.130400891888025e-20 1.143443775785084e-20
 8.479039321572086e-01 2.045398634017239e-29 2.250803344452867e-29 2.115724718745932e-29 1.300579293051518e-20 1.447663653728852e-20 1.350743583483383e-20 1.366328843421251e-20
 8.484877520070835e-01 2.440733267754263e-29 2.685838599192282e-29 2.524651977649509e-29 1.554093166984669e-20 1.729847771967374e-20 1.614035672146259e-20 1.632658870366101e-20
 8.490715718569584e-01 2.912479555635980e-29 3.204958982299198e-29 3.012618120605079e-29 1.857022052490576e-20 2.067035315667656e-20 1.928648745362910e-20 1.950902037840381e-20
 8.496553917068334e-01 3.475406872407299e-29 3.824417050863688e-29 3.594900331584772e-29 2.218997770702160e-20 2.469947382303604e-20 2.304586130621371e-20 2.331177094542378e-20
 8.502392115567082e-01 4.147139370692712e-29 4.563606824716713e-29 4.289728727072706e-29 2.651529514674276e-20 2.951394755929892e-20 2.753800938933770e-20 2.785575069845980e-20
 8.508230314065831e-01 4.948707791770417e-29 5.445671011601407e-29 5.118857139517879e-29 3.168369768158766e-20 3.526685208231330e-20 3.290576097364993e-20 3.328543691251696e-20
 8.514068512564580e-01 5.905207939788837e-29 6.498225607231072e-29 6.108244231593958e-29 3.785951544421198e-20 4.214110185298837e-20 3.931978452469001e-20 3.977346727396345e-20
 8.519906711063329e-01 7.046586437522964e-29 7.754224558858858e-29 7.288866268266756e-29 4.523910845622024e-20 5.035526352684530e-20 4.698401381308765e-20 4.752612859871773e-20
 8.525744909562077e-01 8.408578367320922e-29 9.252991566777575e-29 8.697686996256799e-29 5.405710952496207e-20 6.017050486888476e-20 5.614213160443471e-20 5.678991533276051e-20
 8.531583108060826e-01 1.003382615688454e-28 1.104145133177201e-28 1.037881500000121e-28 6.459388391296889e-20 7.189889804764208e-20 6.708531705360394e-20 6.785936633807163e-20
 8.537421306559575e-01 1.197321474488938e-28 1.317559880184321e-28 1.238488477371408e-28 7.718444293123410e-20 8.591334127940013e-20 8.016150310181352e-20 8.108642910414924e-20
 8.543259505058324e-01 1.428746483390517e-28 1.572225242408923e-28 1.477870475445502e-28 9.222909482796495e-20 1.026594142410871e-19 9.578643817791373e-20 9.689164908232193e-20
 8.549097703557073e-01 1.704903411970766e-28 1.876114630083665e-28 1.763522392061215e-28 1.102061715729970e-19 1.226695441448285e-19 1.144569038641444e-19 1.157775398606566e-19
 8.554935902055821e-01 2.034438602995571e-28 2.238742676146642e-28 2.104387853567126e-28 1.316872361303858e-19 1.465799328226093e-19 1.367665087243041e-19 1.383445592257664e-19
 8.560774100554570e-01 2.427669701334789e-28 2.671463152519721e-28 2.511139252096164e-28 1.573552536655354e-19 1.751507829410411e-19 1.634245603875709e-19 1.653101989980491e-19
 8.566612299053319e-01 2.896908715315208e-28 3.187824474195466e-28 2.996511914601803e-28 1.880263043551801e-19 2.092904663438858e-19 1.952786158373759e-19 1.975317955121472e-19
 8.572450497552068e-01 3.456847526647950e-28 3.803993923160726e-28 3.575702867611850e-28 2.246755280537278e-19 2.500844028375862e-19 2.333414267824211e-19 2.360337858912450e-19
 8.578288696050816e-01 4.125017920603045e-28 4.539263876101273e-28 4.266846684427897e-28 2.684681255966571e-19 2.988295674761278e-19 2.788231367029241e-19 2.820402765919030e-19
 8.584126894549566e-01 4.922340541668647e-28 5.416655887739458e-28 5.091583315297072e-28 3.207964022671945e-19 3.570757233260070e-19 3.331697531107803e-19 3.370139595679940e-19
 8.589965093048315e-01 5.873779964601256e-28 6.463641545970311e-28 6.075735681495886e-28 3.833240310258117e-19 4.266746904872622e-19 3.981091180440552e-19 4.027026131857097e-19
 8.595803291547064e-01 7.009126393761886e-28 7.713002671653839e-28 7.250118251507329e-28 4.580389426092585e-19 5.098392176089737e-19 4.757058381756520e-19 4.811946661312947e-19
 8.601641490045813e-01 8.363928468985903e-28 9.203857799486179e-28 8.651501919164344e-28 5.473165238408876e-19 6.092133273863262e-19 5.684269207284883e-19 5.749855906519006e-19
 8.607479688544561e-01 9.980606388161979e-28 1.098288708349318e-27 1.032376539825628e-27 6.539951331758657e-19 7.279563722661502e-19 6.792202017102759e-19 6.870572357174305e-19
 8.613317887043310e-01 1.190978020335953e-27 1.310579398440828e-27 1.231926918890584e-27 7.814663340475727e-19 8.698434724107078e-19 8.116080596258016e-19 8.209726220280274e-19
 8.619156085542059e-01 1.421185488559927e-27 1.563904951112622e-27 1.470049514095797e-27 9.337827144320149e-19 1.039385528729884e-18 9.697993937204544e-19 9.809892122941178e-19
 8.624994284040808e-01 1.695891179422376e-27 1.866197363677232e-27 1.754200295694960e-27 1.115786720076126e-18 1.241972626042376e-18 1.158823426399958e-18 1.172194257506153e-18
 8.630832482539557e-01 2.023696578211372e-27 2.226921906880265e-27 2.093276490242962e-27 1.333264596812956e-18 1.484045384946096e-18 1.384689583212764e-18 1.400666521657272e-18
 8.636670681038305e-01 2.414865861821404e-27 2.657373515263057e-27 2.497895183530357e-27 1.593130335544207e-18 1.773299709400213e-18 1.654578532724514e-18 1.673669525889645e-18
 8.642508879537054e-01 2.881647307257081e-27 3.171030472416536e-27 2.980725779941082e-27 1.903645467178517e-18 2.118931438585385e-18 1.977070459107143e-18 1.999882454957015e-18
 8.648347078035803e-01 3.438656831426123e-27 3.783976466923938e-27 3.556886729333512e-27 2.274681694386506e-18 2.531928680057234e-18 2.362417823791982e-18 2.389676066078574e-18
 8.654185276534552e-01 4.103335672985942e-27 4.515404235911722e-27 4.244418945170352e-27 2.718034708692847e-18 3.025421116859388e-18 2.822871286715589e-18 2.855442370755941e-18
 8.660023475033300e-01 4.896496548879866e-27 5.388216568168409e-27 5.064850739326332e-27 3.247799168452473e-18 3.615097392291939e-18 3.373069147469561e-18 3.411988569404658e-18
 8.665861673532050e-01 5.842975388932147e-27 6.429743487769154e-27 6.043871965000873e-27 3.880816757367593e-18 4.319703840002924e-18 4.030502685760834e-18 4.077007761043783e-18
 8.671699872030799e-01 6.972409058241272e-27 7.672598077549438e-27 7.212138479214794e-27 4.637211566188334e-18 5.161640412766422e-18 4.816072193174393e-18 4.871641390709716e-18
 8.677538070529548e-01 8.320163422669483e-27 9.155697743553421e-27 8.606232117586927e-27 5.541029815938693e-18 6.167672752917321e-18 5.754751370989906e-18 5.821151313281973e-18
 8.683376269028297e-01 9.928440821042482e-27 1.092548290272124e-26 1.026980624428669e-26 6.621004257645665e-18 7.369783039132174e-18 6.876381213365039e-18 6.955722836714293e-18
 8.689214467527046e-01 1.184760162620262e-26 1.303737125883756e-26 1.225495275176765e-26 7.911467546538744e-18 8.806186655415095e-18 8.216618611042982e-18 8.311424270998939e-18
 8.695052666025794e-01 1.413774128178518e-26 1.555749320979702e-26 1.462383332013879e-26 9.453443624001824e-18 1.052254699898567e-17 9.818069828700974e-18 9.931353483896153e-18
 8.700890864524543e-01 1.687057220245766e-26 1.856476273358315e-26 1.745062602199176e-26 1.129595179868261e-17 1.257342704177441e-17 1.173164488541777e-17 1.186700790862493e-17
 8.706729063023292e-01 2.013166947301669e-26 2.215334860681419e-26 2.082384823442942e-26 1.349756497897338e-17 1.502402378562945e-17 1.401817588931589e-17 1.417992155130624e-17
 8.712567261522041e-01 2.402315067514603e-26 2.643562334727651e-26 2.484912860518515e-26 1.612827158741819e-17 1.795224074327017e-17 1.675035076736342e-17 1.694362103268393e-17
 8.718405460020789e-01 2.866687376667814e-26 3.154568223325761e-26 2.965251488322786e-26 1.927170034026236e-17 2.145116432131797e-17 2.001502385629075e-17 2.024596283929036e-17
 8.724243658519538e-01 3.420825316267839e-26 3.764354260627595e-26 3.538442120656433e-26 2.302777860912541e-17 2.563202281986891e-17 2.391597679920921e-17 2.419192607606784e-17
 8.730081857018287e-01 4.082081352874103e-26 4.492015496916693e-26 4.222433846670288e-26 2.751590886323699e-17 3.062772210309650e-17 2.857721750553707e-17 2.890694949062352e-17
 8.735920055517036e-01 4.871162390093582e-26 5.360338281570997e-26 5.038645526767101e-26 3.287876415784562e-17 3.659707032483910e-17 3.414692203416021e-17 3.454091883894830e-17
 8.741758254015785e-01 5.812778231750390e-26 6.396513846736194e-26 6.012636551608700e-26 3.928682331067601e-17 4.372982599460789e-17 4.080214469494786e-17 4.127293133341059e-17
 8.747596452514534e-01 6.936415404818367e-26 7.632989839743866e-26 7.174907271078486e-26 4.694378991903847e-17 5.225272983904333e-17 4.875444608129822e-17 4.931698861312667e-17
 8.753434651013283e-01 8.277260576844151e-26 9.108486472721314e-26 8.561854161179019e-26 5.609306746263433e-17 6.243671218329910e-17 5.825661792237422e-17 5.892879918943588e-17
 8.759272849512032e-01 9.877302487755177e-26 1.086920911350555e-25 1.021690964310001e-25 6.702549630409543e-17 7.460550493996910e-17 6.961071850538835e-17 7.041390658315095e-17
 8.765111048010781e-01 1.178664690688877e-25 1.297029529437278e-25 1.219190225186427e-25 8.008859850770967e-17 8.914593193750125e-17 8.317767407371801e-17 8.413740150630966e-17
 8.770949246509530e-01 1.406508579790454e-25 1.547754145692520e-25 1.454867975318017e-25 9.569762432134376e-17 1.065202046644607e-16 9.938875137968083e-17 1.005355267884951e-16
 8.776787445008278e-01 1.678396983592532e-25 1.846946351269451e-25 1.736104604255542e-25 1.143487514304533e-16 1.272806142459355e-16 1.187592660433837e-16 1.201295439065908e-16
 8.782625643507027e-01 2.002844292216096e-25 2.203975575403806e-25 2.071707248830145e-25 1.366348565162304e-16 1.520870866296098e-16 1.419049624313526e-16 1.435423018590643e-16
 8.788463842005776e-01 2.390010867897764e-25 2.630022512617766e-25 2.472185610758598e-25 1.632643604069584e-16 1.817281589620683e-16 1.695615856790994e-16 1.715180350160420e-16
 8.794302040504525e-01 2.852021243803399e-25 3.138429275957552e-25 2.950081095953496e-25 1.950837458011517e-16 2.171460438732495e-16 2.026082679392396e-16 2.049460192045470e-16
 8.800140239003273e-01 3.403343837940488e-25 3.745117242849840e-25 3.520359583980069e-25 2.331044632672459e-16 2.594665783138804e-16 2.420954721651851e-16 2.448888379154372e-16
 8.805978437502022e-01 4.061244074637380e-25 4.469085680320309e-25 4.200880129021501e-25 2.785350806980288e-16 3.100350088374006e-16 2.892783815934436e-16 2.926161570429577e-16
 8.811816636000771e-01 4.846325105215318e-25 5.333006766363443e-25 5.012954271923404e-25 3.328196980505359e-16 3.704587507173890e-16 3.456567961680060e-16 3.496450816453103e-16
 8.817654834499520e-01 5.783173063141071e-25 6.363935643440882e-25 5.982013480884162e-25 3.976838483307290e-16 4.426584799398361e-16 4.130228039594296e-16 4.177883774099982e-16
 8.823493032998269e-01 6.901127063048425e-25 7.594157742980400e-25 7.138405625030354e-25 4.751893437152544e-16 5.289291819507621e-16 4.935177427414529e-16 4.992120894691564e-16
 8.829331231497017e-01 8.235198060109677e-25 9.062199919201842e-25 8.518345426545219e-25 5.677998100017381e-16 6.320130974906292e-16 5.897002621527599e-16 5.965043898817091e-16
 8.835169429995767e-01 9.827165348703229e-25 1.081403706127934e-24 1.016504865979082e-24 6.784589922796578e-16 7.551868839648359e-16 7.046276496746050e-16 7.127578419730329e-16
 8.841007628494516e-01 1.172688504320307e-24 1.290453197546886e-24 1.213008562104457e-24 8.106843206118629e-16 9.023657626011226e-16 8.419530052087981e-16 8.516676961405947e-16
 8.846845826993265e-01 1.399385152328454e-24 1.539915363516382e-24 1.447499626032506e-24 9.686787095117432e-16 1.078227961488521e-15 1.006041352742129e-15 1.017649341247464e-15
 8.852684025492014e-01 1.669906074937338e-24 1.837602761574661e-24 1.727321756243603e-24 1.157464144506537e-15 1.288363409634956e-15 1.202108379440698e-15 1.215978644527397e-15
 8.858522223990762e-01 1.992723380893882e-24 2.192838293568334e-24 2.061238354452043e-24 1.383041301509796e-15 1.539451407921397e-15 1.436386211657811e-15 1.452959640363001e-15
 8.864360422489511e-01 2.377947033741377e-24 2.616747194147060e-24 2.459706990844107e-24 1.652580272091490e-15 1.839472923763835e-15 1.716321496616647e-15 1.736124897490658e-15
 8.870198620988260e-01 2.837641492203935e-24 3.122605469070134e-24 2.935206931376267e-24 1.974648456326071e-15 2.197964256687418e-15 2.050812085251424e-15 2.074474932754971e-15
 8.876036819487009e-01 3.386203566463614e-24 3.726255696878625e-24 3.502629985726445e-24 2.359482866134436e-15 2.626320136840350e-15 2.450489838487551e-15 2.478764280487446e-15
 8.881875017985758e-01 4.040813325350201e-24 4.446603217459295e-24 4.179746917836897e-24 2.819315493454467e-15 3.138155889513281e-15 2.928058545099454e-15 2.961843309355734e-15
 8.887713216484506e-01 4.821972177592068e-24 5.306208248935097e-24 4.987764027787402e-24 3.368762084029773e-15 3.749740175908340e-15 3.498697690787450e-15 3.539066650241854e-15
 8.893551414983255e-01 5.754144980794005e-24 6.331992479040937e-24 5.951987338137180e-24 4.025286672696627e-15 4.480512063381901e-15 4.180544910928984e-15 4.228781215669171e-15
 8.899389613482004e-01 6.866526290229814e-24 7.556082262785202e-24 7.102615188328888e-24 4.809756643802010e-15 5.353698858434157e-15 4.995272460081207e-15 5.052909320772459e-15
 8.905227811980753e-01 8.193954747955191e-24 9.016814837101075e-24 8.475684062859433e-24 5.747105957333486e-15 6.397054338024628e-15 5.968776019225632e-15 6.037645438194583e-15
 8.911066010479501e-01 9.778004252939510e-24 1.075993906936630e-23 1.011419727865752e-23 6.867127618894872e-15 7.643740841103684e-15 7.131997731887882e-15 7.214288730628813e-15
 8.916904208978251e-01 1.166828609025156e-23 1.284004835008102e-23 1.206947188483185e-23 8.205420579072126e-15 9.133383254173426e-15 8.521909626101624e-15 8.620237819782393e-15
 8.922742407477000e-01 1.392400280526215e-23 1.532229051150864e-23 1.440274596307984e-23 9.804521155524675e-15 1.091332838751141e-14 1.018268867627393e-14 1.030017940643667e-14
 8.928580605975749e-01 1.661580249434284e-23 1.828440833148605e-23 1.718709667368690e-23 1.171525493527323e-14 1.304014976600950e-14 1.216712084932873e-14 1.230750851687049e-14