DF-ISE text

Info {
  version  = 1.0
  type     = xyplot
  datasets  = [ "hbar_omega" "gx" "gy" "gz" "spx" "spy" "spz" "lumi" ]
  functions = [ hbar_omega gx gy gz spx spy spz lumi ]
}

Data {

 7.953601456684689e-01 3.116915857233291e-36 3.432240009808741e-36 3.224848677440778e-36 1.591381052515067e-28 1.772239743694897e-28 1.653055079914282e-28 1.672225292041415e-28
 7.959439655183438e-01 3.719184273324442e-36 4.095437172977288e-36 3.847972494077873e-36 1.901665552112824e-28 2.117787732450042e-28 1.975364665961007e-28 1.998272650174624e-28
 7.965277853682187e-01 4.437828845723001e-36 4.886783737079813e-36 4.591502350192315e-36 2.272447520186225e-28 2.530708659858704e-28 2.360516301953951e-28 2.387890827332960e-28
 7.971116052180935e-01 5.295337363482582e-36 5.831042478160718e-36 5.478704743857769e-36 2.715522165307135e-28 3.024138246861628e-28 2.820762320178679e-28 2.853474244115814e-28
 7.976954250679684e-01 6.318543100680037e-36 6.957761270175899e-36 6.537342133986079e-36 3.244984365555107e-28 3.613773238795587e-28 3.370743846199273e-28 3.409833816849989e-28
 7.982792449178433e-01 7.539464544013091e-36 8.302197763999251e-36 7.800541746081667e-36 3.877677018011524e-28 4.318370709310202e-28 4.027956524152542e-28 4.074668083824756e-28
 7.988630647677182e-01 8.996307393742620e-36 9.906422756227265e-36 9.307832270555289e-36 4.633726797921934e-28 5.160344707964628e-28 4.813307039275095e-28 4.869126181720552e-28
 7.994468846175932e-01 1.073466019714299e-35 1.182063677940914e-35 1.110638089866847e-35 5.537184368479193e-28 6.166479229142386e-28 5.751778139038645e-28 5.818480578886742e-28
 8.000307044674680e-01 1.280892103386851e-35 1.410474111866074e-35 1.325246941127884e-35 6.616789404335093e-28 7.368780179636366e-28 6.873223305174137e-28 6.952930963048532e-28
 8.006145243173429e-01 1.528399990407164e-35 1.683021242261949e-35 1.581325551739500e-35 7.906884761750214e-28 8.805493443222049e-28 8.213316352517180e-28 8.308564852496481e-28
 8.011983441672178e-01 1.823735009905453e-35 2.008233957859423e-35 1.886887456729904e-35 9.448508871991134e-28 1.052232142335244e-27 9.814686158148917e-28 9.928505484497499e-28
 8.017821640170927e-01 2.176139213081271e-35 2.396289285999863e-35 2.251494741812301e-35 1.129070110306174e-27 1.257387675780203e-27 1.172827261246612e-27 1.186428349110996e-27
 8.023659838669676e-01 2.596640608326331e-35 2.859330888355338e-35 2.686557294165488e-35 1.349206160835670e-27 1.502541944238924e-27 1.401494691982285e-27 1.417747599018959e-27
 8.029498037168424e-01 3.098398290889934e-35 3.411849105787225e-35 3.205689883277878e-35 1.612261527481528e-27 1.795493261477013e-27 1.674744778405902e-27 1.694166522454815e-27
 8.035336235667173e-01 3.697114268888520e-35 4.071134446913683e-35 3.825138247702202e-35 1.926603905500160e-27 2.145560302033856e-27 2.001269506091206e-27 2.024477904541740e-27
 8.041174434165922e-01 4.411524874984724e-35 4.857818713665647e-35 4.564287523378842e-35 2.302232352486417e-27 2.563878505307262e-27 2.391455446453889e-27 2.419188768082523e-27
 8.047012632664671e-01 5.263987144021105e-35 5.796520700069646e-35 5.446268926402770e-35 2.751095331927770e-27 3.063754264404714e-27 2.857714126094644e-27 2.890854574142376e-27
 8.052850831163419e-01 6.281178509258917e-35 6.916616673561909e-35 6.498683678401580e-35 3.287470760004514e-27 3.661088164840838e-27 3.414876802326184e-27 3.454478575723845e-27
 8.058689029662168e-01 7.494931716683179e-35 8.253159753763324e-35 7.754466832322200e-35 3.928420143066659e-27 4.374880734234712e-27 4.080666200763659e-27 4.127989026021676e-27
 8.064527228160917e-01 8.943231089110486e-35 9.847976964080393e-35 9.252918035254665e-35 4.694331249598151e-27 5.227836788340790e-27 4.876260218559506e-27 4.932809418832816e-27
 8.070365426659666e-01 1.067140132205427e-34 1.175097829262287e-34 1.104093149001894e-34 5.609566576214552e-27 6.247087594487853e-27 5.826965521723166e-27 5.894539897475191e-27
 8.076203625158416e-01 1.273352601954320e-34 1.402171873481713e-34 1.317446361215906e-34 6.703238231876303e-27 7.465053820523460e-27 6.963022459998671e-27 7.043771504132811e-27
 8.082041823657165e-01 1.519414036898653e-34 1.673126220846270e-34 1.572028431889371e-34 8.010133885037345e-27 8.920476714828753e-27 8.320566899126834e-27 8.417059166330977e-27
 8.087880022155913e-01 1.813025093482533e-34 1.996440568068953e-34 1.875806676434920e-34 9.571823222747304e-27 1.065965031327019e-26 9.942779560807988e-27 1.005808436560849e-26
 8.093718220654662e-01 2.163374578969518e-34 2.382233312109117e-34 2.238288092894343e-34 1.143798011156727e-26 1.273789386223655e-26 1.188125942400949e-26 1.201904446593777e-26
 8.099556419153411e-01 2.581427041966137e-34 2.842578234916791e-34 2.670816911170555e-34 1.366796251011029e-26 1.522131128648704e-26 1.419766486707107e-26 1.436231288788947e-26
 8.105394617652160e-01 3.080265941921168e-34 3.391882389824071e-34 3.186929645828694e-34 1.633270038022575e-26 1.818889365934727e-26 1.696567474495203e-26 1.716242292817502e-26
 8.111232816150908e-01 3.675503138851652e-34 4.047337017477911e-34 3.802778765666244e-34 1.951695163901117e-26 2.173503154116459e-26 2.027333177074085e-26 2.050843831697221e-26
 8.117071014649657e-01 4.385767520446405e-34 4.829455605117775e-34 4.537638241036323e-34 2.332199789839613e-26 2.597251708670514e-26 2.422584272871936e-26 2.450678590460687e-26
 8.122909213148406e-01 5.233288060812167e-34 5.762715930714165e-34 5.414506792800329e-34 2.786886572528810e-26 3.103613139794143e-26 2.894892457455617e-26 2.928464056592856e-26
 8.128747411647155e-01 6.244589560983426e-34 6.876326188370741e-34 6.460827724997721e-34 3.330217586788732e-26 3.708693121066815e-26 3.459280283851987e-26 3.499396997235844e-26
 8.134585610145904e-01 7.451322848453967e-34 8.205139175353606e-34 7.709347872595619e-34 3.979474286428526e-26 4.431737124351461e-26 4.133698949206672e-26 4.181636786662219e-26
 8.140423808644652e-01 8.891255421812655e-34 9.790743155723947e-34 9.199142550249018e-34 4.755307131288714e-26 5.295742511340370e-26 4.939599222641238e-26 4.996882955090106e-26
 8.146262007143401e-01 1.060945354883411e-33 1.168276354589776e-33 1.097683858418198e-33 5.682392359941300e-26 6.328189947744060e-26 5.902613671201880e-26 5.971065326295747e-26
 8.152100205642150e-01 1.265969281930145e-33 1.394041616666028e-33 1.309807370975015e-33 6.790216794899150e-26 7.561917400742019e-26 7.053371880221653e-26 7.135168691954274e-26
 8.157938404140899e-01 1.510614130502908e-33 1.663436068080690e-33 1.562923801606823e-33 8.114015638769867e-26 9.036164514629147e-26 8.428474593796540e-26 8.526218249065184e-26
 8.163776602639649e-01 1.802536801287116e-33 1.984891223217651e-33 1.864955194789525e-33 9.695893085053732e-26 1.079782057778772e-25 1.007165775489341e-25 1.018845713924496e-25
 8.169614801138397e-01 2.150873949907833e-33 2.368468051454510e-33 2.225354591015169e-33 1.158616138094126e-25 1.290291576848628e-25 1.203518346357228e-25 1.217475353766661e-25
 8.175452999637146e-01 2.566527966396449e-33 2.826171887866782e-33 2.655401909179244e-33 1.384494092638074e-25 1.541840310343118e-25 1.438150208794830e-25 1.454828203925341e-25
 8.181291198135895e-01 3.062508224483949e-33 3.372328205154805e-33 3.168557012682731e-33 1.654407229476297e-25 1.842428775748091e-25 1.718523838530376e-25 1.738453281251588e-25
 8.187129396634644e-01 3.654338282644657e-33 4.024031009358729e-33 3.780881011067267e-33 1.976940097977078e-25 2.201617146944053e-25 2.053556479438039e-25 2.077371241453057e-25
 8.192967595133392e-01 4.360541783333389e-33 4.801677895303981e-33 4.511538985011298e-33 2.362350752568010e-25 2.630829294864260e-25 2.453903737197409e-25 2.482361261543227e-25
 8.198805793632141e-01 5.203222260399874e-33 5.729608510485748e-33 5.383399871363616e-33 2.822896986157204e-25 3.143716096982341e-25 2.932298455902155e-25 2.966303846347233e-25
 8.204643992130890e-01 6.208755004347294e-33 6.836866413178247e-33 6.423752286369325e-33 3.373226158387304e-25 3.756589569114920e-25 3.503955654121421e-25 3.544590460541215e-25
 8.210482190629639e-01 7.408612642964963e-33 8.158108173292264e-33 7.665158694576956e-33 4.030841015457393e-25 4.488941625149479e-25 4.187056397584951e-25 4.235613012730607e-25
 8.216320389128388e-01 8.840350280704377e-33 9.734688173806059e-33 9.146474661702399e-33 4.816656314731861e-25 5.364063961422578e-25 5.003325995797808e-25 5.061348757317416e-25
 8.222158587627136e-01 1.054878103505714e-32 1.161595307079375e-32 1.091406509757771e-32 5.755663954885183e-25 6.409788778167632e-25 5.978724909326767e-25 6.048059214126527e-25
 8.227996786125885e-01 1.258737876847147e-32 1.386078643332824e-32 1.302325556198456e-32 6.877727762705413e-25 7.659373892956987e-25 7.144274338593730e-25 7.227125331418710e-25
 8.233834984624634e-01 1.501995192662935e-32 1.653945191633790e-32 1.554006406474172e-32 8.218533210621808e-25 9.152560392572912e-25 8.537042747738753e-25 8.636045450311156e-25
 8.239673183123383e-01 1.792264088084860e-32 1.973579266502414e-32 1.854326757224508e-32 9.820722265623760e-25 1.093683645624717e-24 1.020132469464785e-24 1.031962780550626e-24
 8.245511381622133e-01 2.138630129967640e-32 2.354985580128213e-32 2.212686791064994e-32 1.173524945715245e-24 1.306894753916428e-24 1.219004945330244e-24 1.233141548320639e-24
 8.251349580120881e-01 2.551934815945665e-32 2.810102414983803e-32 2.640303425907168e-32 1.402300228595599e-24 1.561670093898531e-24 1.456646422163534e-24 1.473538914885888e-24
 8.257187778619630e-01 3.045114942412089e-32 3.353175324113634e-32 3.150561434600112e-32 1.675673750147359e-24 1.866112212900872e-24 1.740614543941151e-24 1.760800168996461e-24
 8.263025977118379e-01 3.633607563213643e-32 4.001203057651873e-32 3.759432426568471e-32 2.002339481932045e-24 2.229903142708057e-24 2.079940217391369e-24 2.104060947343824e-24
 8.268864175617128e-01 4.335833216217489e-32 4.774469675215705e-32 4.485974807588845e-32 2.392686165224292e-24 2.664612293515578e-24 2.485414799814067e-24 2.514237752851312e-24
 8.274702374115877e-01 5.173772545149752e-32 5.697179501943740e-32 5.352930368937052e-32 2.859127676911289e-24 3.184064365547202e-24 2.969933268321964e-24 3.004375103593485e-24
 8.280540572614625e-01 6.173654367940848e-32 6.798214805575684e-32 6.387436182221058e-32 3.416497793312002e-24 3.804778977344329e-24 3.548904282745230e-24 3.590060351133853e-24
 8.286378771113374e-01 7.366776731779442e-32 8.112039913899064e-32 7.621874085997270e-32 4.082521904717056e-24 4.546495990140002e-24 4.240740181484570e-24 4.289919358780542e-24
 8.292216969612123e-01 8.790486658407871e-32 9.679780076404917e-32 9.094884357767128e-32 4.878380680268171e-24 5.432803232626603e-24 5.067442491242451e-24 5.126208801379075e-24
 8.298055168110872e-01 1.048934925123457e-31 1.155050884463127e-31 1.085257530502735e-31 5.829383606544973e-24 6.491886586455799e-24 6.055301568620984e-24 6.125523920540585e-24
 8.303893366609620e-01 1.251654276412962e-31 1.378278427370213e-31 1.294996664262317e-31 6.965773816864592e-24 7.757426283495261e-24 7.235732620608726e-24 7.319644240322861e-24
 8.309731565108369e-01 1.493552330593439e-31 1.644648203739500e-31 1.545271184278345e-31 8.323689802917354e-24 9.269667914924739e-24 8.646274687383823e-24 8.746544135075306e-24
 8.315569763607118e-01 1.782201129619442e-31 1.962498284453480e-31 1.843915337800710e-31 9.946314588665668e-24 1.107670220747382e-23 1.033178435248691e-23 1.045160038287546e-23
 8.321407962105867e-01 2.126636186077453e-31 2.341778263671551e-31 2.200277519893366e-31 1.188524890706165e-23 1.323599426015007e-23 1.234586213704961e-23 1.248903510142044e-23
 8.327246160604617e-01 2.537639337615433e-31 2.794360728351333e-31 2.625512922570470e-31 1.420215204257005e-23 1.581621086669435e-23 1.475255693322586e-23 1.492363994749675e-23
 8.333084359103365e-01 3.028076271471400e-31 3.334412928593434e-31 3.132932747152257e-31 1.697070251319420e-23 1.889940402694391e-23 1.762840267251711e-23 1.783283640421840e-23
 8.338922557602114e-01 3.613299285927497e-31 3.978840284633783e-31 3.738420912576092e-31 2.027894093527452e-23 2.258362007561634e-23 2.106485198837680e-23 2.130913766642256e-23
 8.344760756100863e-01 4.311627897945305e-31 4.747815615359984e-31 4.460931305552709e-31 2.423206956609372e-23 2.698601738982566e-23 2.517118425518528e-23 2.546309040370155e-23
 8.350598954599612e-01 5.144922343449611e-31 5.665410657001555e-31 5.323081140065285e-31 2.895579753963377e-23 3.224659180717234e-23 3.007798046873366e-23 3.042678993851326e-23
 8.356437153098361e-01 6.139267925029857e-31 6.760349643165146e-31 6.351859002719704e-31 3.460033816133793e-23 3.853262820862036e-23 3.594127545628174e-23 3.635808060874668e-23
 8.362275351597109e-01 7.325791632280504e-31 8.066908538927936e-31 7.579469751081648e-31 4.134518536007063e-23 4.604401980892350e-23 4.294751944007777e-23 4.344557486969064e-23
 8.368113550095858e-01 8.741636601264367e-31 9.625988081917700e-31 9.044342716802855e-31 4.940482116878945e-23 5.501962428614390e-23 5.131950671164015e-23 5.191465072219117e-23
 8.373951748594607e-01 1.043112492132077e-30 1.148639422497905e-30 1.079233477819963e-30 5.903553570736819e-23 6.574485884795722e-23 6.132345992324918e-23 6.203461815952486e-23
 8.379789947093356e-01 1.244714519438213e-30 1.370636606853365e-30 1.287816596808829e-30 7.054357651267054e-23 7.856077572404839e-23 7.327749524558807e-23 7.412728249410233e-23
 8.385628145592104e-01 1.485280828874605e-30 1.635539911940505e-30 1.536713256313581e-30 8.429488632693978e-23 9.387490664334867e-23 8.756173754445614e-23 8.857717683824821e-23
 8.391466344090853e-01 1.772342312620180e-30 1.951642095931187e-30 1.833715128870650e-30 1.007267389595789e-22 1.121742210985993e-22 1.046304071907726e-22 1.058437890829836e-22
 8.397304542589602e-01 2.114885436145144e-30 2.328838743995609e-30 2.188119864020109e-30 1.203616431851208e-22 1.340406104069002e-22 1.250262628045901e-22 1.264761721322037e-22
 8.403142741088351e-01 2.523633576962299e-30 2.778938068811155e-30 2.611022169278559e-30 1.438239567501428e-22 1.601693898800807e-22 1.493978591384194e-22 1.511304019228810e-22
 8.408980939587100e-01 3.011382742577299e-30 3.316030591565558e-30 3.115661153358341e-30 1.718597387268434e-22 1.913914073762350e-22 1.785201688094498e-22 1.805904383041761e-22
 8.414819138085849e-01 3.593402178628664e-30 3.956930277794175e-30 3.717834806599372e-30 2.053604714098073e-22 2.286994611637392e-22 2.133192235392407e-22 2.157930520375957e-22
 8.420657336584598e-01 4.287912409924440e-30 4.721700939646665e-30 4.436394595650366e-30 2.453914059791338e-22 2.732798670375466e-22 2.549015583539969e-22 2.578576104568924e-22
 8.426495535083347e-01 5.116655681518219e-30 5.634284385883420e-30 5.293835657825663e-30 2.932254331580973e-22 3.265501783395206e-22 3.045893949007342e-22 3.081216687994507e-22
 8.432333733582096e-01 6.105576660044247e-30 6.723249986658116e-30 6.317001073822452e-30 3.503835557508229e-22 3.902042581551114e-22 3.639626824995405e-22 3.681834988018249e-22
 8.438171932080845e-01 7.285634707835704e-30 8.022689121701624e-30 7.537922269334468e-30 4.186832498393023e-22 4.662661367067666e-22 4.349093335804472e-22 4.399529067088387e-22
 8.444010130579593e-01 8.693773161981164e-30 9.573282516917079e-30 8.994821858383785e-30 5.002962522222418e-22 5.571543662710944e-22 5.196852506764543e-22 5.257119563899302e-22
 8.449848329078342e-01 1.037407596642898e-29 1.142357388767574e-29 1.073331032737744e-29 5.978176113640390e-22 6.657589196915891e-22 6.209860534444113e-22 6.281875281666798e-22
 8.455686527577091e-01 1.237914787145825e-29 1.363148976676961e-29 1.280781402823988e-29 7.143481972178957e-22 7.955330773516065e-22 7.420327861591592e-22 7.506380202428871e-22
 8.461524726075840e-01 1.477176141498686e-29 1.626615310330204e-29 1.528327919152600e-29 8.535932931768062e-22 9.506032239912049e-22 8.866743305989679e-22 8.969569492556597e-22
 8.467362924574589e-01 1.762682225347594e-29 1.941004741715069e-29 1.823720531296682e-29 1.019980404692760e-21 1.135900046145230e-21 1.059509780341831e-21 1.071796743726607e-21
 8.473201123073337e-01 2.103371437818593e-29 2.316159927004908e-29 2.176207158006800e-29 1.218800030042024e-21 1.357315301349896e-21 1.266034667106588e-21 1.280716666166170e-21
 8.479039321572086e-01 2.509909864736915e-29 2.763825991250976e-29 2.596823231210692e-29 1.456373868724526e-21 1.621889143240168e-21 1.512815688074620e-21 1.530359566679772e-21
 8.484877520070835e-01 2.995025225912201e-29 3.298018259590421e-29 3.098737207252695e-29 1.740255815275509e-21 1.938033958085109e-21 1.807699489223568e-21 1.828663087528062e-21
 8.490715718569584e-01 3.573905372752742e-29 3.935461069045560e-29 3.697662863716354e-29 2.079472128567353e-21 2.315801829064440e-21 2.160062142398721e-21 2.185112033343505e-21
 8.496553917068334e-01 4.264673813679699e-29 4.696111400674083e-29 4.412351291372036e-29 2.484808412123929e-21 2.767204131577244e-21 2.581107247559310e-21 2.611039930420161e-21
 8.502392115567082e-01 5.088957156726422e-29 5.603783727746504e-29 5.265177986225523e-29 2.969152529149546e-21 3.306593420183521e-21 3.084222137491188e-21 3.119989362274752e-21
 8.508230314065831e-01 6.072562236863368e-29 6.686895644952306e-29 6.282843424463956e-29 3.547904354202595e-21 3.951119748100977e-21 3.685403509420675e-21 3.728142537241416e-21
 8.514068512564580e-01 7.246284130095802e-29 7.979357625596411e-29 7.497209056532599e-29 4.239465388239031e-21 4.721275926455054e-21 4.403766015105890e-21 4.454835776599992e-21
 8.519906711063329e-01 8.646870354813768e-29 9.521634766799379e-29 8.946294896928913e-29 5.065823802672529e-21 5.641549057947470e-21 5.262149978299565e-21 5.323174279639855e-21
 8.525744909562077e-01 1.031817145154813e-28 1.136201376815640e-28 1.067546994632958e-28 6.053253511842277e-21 6.741199058134429e-21 6.287847559794352e-21 6.360766709923686e-21
 8.531583108060826e-01 1.231251396836884e-28 1.355811481580248e-28 1.273887272084080e-28 7.233149498294146e-21 8.055188914499325e-21 7.513470455763994e-21 7.600602956185823e-21
 8.537421306559575e-01 1.469233884340124e-28 1.617869571261072e-28 1.520110636855986e-28 8.643025946796779e-21 9.625296257292457e-21 8.977986714497514e-21 9.082102972862249e-21
 8.543259505058324e-01 1.753215648642020e-28 1.930580474646900e-28 1.813926145189651e-28 1.032770891872441e-20 1.150144158003432e-20 1.072795963291875e-20 1.085237004389249e-20
 8.549097703557073e-01 2.092087977845488e-28 2.303734970880758e-28 2.164532973448116e-28 1.234076148286999e-20 1.374327533486466e-20 1.281902811839314e-20 1.296768831204260e-20
 8.554935902055821e-01 2.496460804235158e-28 2.749016350675865e-28 2.582908455529063e-28 1.474618660849719e-20 1.642207435750068e-20 1.531767557745848e-20 1.549531218115211e-20
 8.560774100554570e-01 2.978994915888729e-28 3.280366236259558e-28 3.082151798327330e-28 1.762046195640356e-20 1.962300791004712e-20 1.830334356528570e-20 1.851560447724546e-20
 8.566612299053319e-01 3.554798385452870e-28 3.914421115039312e-28 3.677894238079290e-28 2.105497125463475e-20 2.344784537986324e-20 2.187095738944249e-20 2.212459134131349e-20
 8.572450497552068e-01 4.241899629601478e-28 4.671033256327445e-28 4.388788480963148e-28 2.515890955265055e-20 2.801819171264159e-20 2.613394395728435e-20 2.643701507419217e-20
 8.578288696050816e-01 5.061811912333015e-28 5.573892322860845e-28 5.237092754063179e-28 3.006275471194495e-20 3.347935343408611e-20 3.122783780431315e-20 3.158998198344806e-20
 8.584126894549566e-01 6.040206968782232e-28 6.651267142059482e-28 6.249367755482538e-28 3.592241549122349e-20 4.000495816036791e-20 3.731458993853787e-20 3.774732119670976e-20
 8.589965093048315e-01 7.207718843290518e-28 7.936890864725863e-28 7.457308327784821e-28 4.292418809239246e-20 4.780247445006758e-20 4.458771647757426e-20 4.510479300667810e-20
 8.595803291547064e-01 8.600903113120278e-28 9.471017229044947e-28 8.898735897786590e-28 5.129067873356595e-20 5.711980747103397e-20 5.327845075117221e-20 5.389631231859071e-20
 8.601641490045813e-01 1.026338153508550e-27 1.130168100589056e-27 1.061878276010620e-27 6.128788052382432e-20 6.825318015410835e-20 6.366309444049890e-20 6.440138503947719e-20
 8.607479688544561e-01 1.224720795892195e-27 1.348620209541755e-27 1.267130528949516e-27 7.323362960789649e-20 8.155655036926873e-20 7.607180144099895e-20 7.695399380605471e-20
 8.613317887043310e-01 1.461449828024504e-27 1.609298037492177e-27 1.512057033594190e-27 8.750770939344444e-20 9.745286348713549e-20 9.089907367935453e-20 9.195321551997816e-20
 8.619156085542059e-01 1.743937547446045e-27 1.920363750295495e-27 1.804326761137764e-27 1.045639240629963e-19 1.164474980321420e-19 1.086163025347887e-19 1.098759082099757e-19
 8.624994284040808e-01 2.081029061993920e-27 2.291557274982177e-27 2.153091108543392e-27 1.249445251720111e-19 1.391443318474650e-19 1.297867545404341e-19 1.312918705199701e-19
 8.630832482539557e-01 2.483279259315401e-27 2.734501289013322e-27 2.569270458981139e-27 1.492974499338746e-19 1.662649394919859e-19 1.550834777386559e-19 1.568819557215054e-19
 8.636670681038305e-01 2.963283316904213e-27 3.263065166508955e-27 3.065896136793149e-27 1.783969191693885e-19 1.986715311238894e-19 1.853106979047828e-19 1.874597160660202e-19
 8.642508879537054e-01 3.536071102664166e-27 3.893799278516759e-27 3.658518465392624e-27 2.131680496934428e-19 2.373943620577764e-19 2.214293847876696e-19 2.239972655129629e-19
 8.648347078035803e-01 4.219577816814298e-27 4.646453247610862e-27 4.365693706595796e-27 2.547162635196063e-19 2.836644842927297e-19 2.645878010690234e-19 2.676561829604532e-19
 8.654185276534552e-01 5.035205613551564e-27 5.544594386255100e-27 5.209565130166034e-27 3.043624287404169e-19 3.389528811146659e-19 3.161580051297179e-19 3.198244383282669e-19
 8.660023475033300e-01 6.008493790057087e-27 6.616345685772472e-27 6.216556410180453e-27 3.636848491337672e-19 4.050172287749055e-19 3.777794679648174e-19 3.821605152911634e-19
 8.665861673532050e-01 7.169918530400370e-27 7.895266466690297e-27 7.418199062532204e-27 4.345694372449566e-19 4.839577716873348e-19 4.514111907251484e-19 4.566461332191466e-19
 8.671699872030799e-01 8.555847249144735e-27 9.421403268932926e-27 8.852119835625252e-27 5.192696658193148e-19 5.782840872748448e-19 5.393939795697569e-19 5.456492442213055e-19
 8.677538070529548e-01 1.020967742105443e-26 1.124254389173303e-26 1.056321897557084e-26 6.204782032799077e-19 6.909948627396030e-19 6.445248573790137e-19 6.519993077995081e-19
 8.683376269028297e-01 1.218319556088115e-26 1.341571385520102e-26 1.260507626483843e-26 7.414125103379622e-19 8.256732196332948e-19 7.701459776646195e-19 7.790772358786255e-19
 8.689214467527046e-01 1.453819891170830e-26 1.600896214747839e-26 1.504162886655824e-26 8.859171185946880e-19 9.866006163085818e-19 9.202508669821587e-19 9.309228672951430e-19
 8.695052666025794e-01 1.734843062770515e-26 1.910349218109934e-26 1.794917351894383e-26 1.058585842248326e-18 1.178892948851074e-18 1.099611372957053e-18 1.112363388018818e-18
 8.700890864524543e-01 2.070188905501537e-26 2.279620469328793e-26 2.141875578215043e-26 1.264907807610429e-18 1.408663176688128e-18 1.313929353179764e-18 1.329166779159441e-18
 8.706729063023292e-01 2.470358343043742e-26 2.720273222609778e-26 2.555902116151709e-26 1.511441942203018e-18 1.683215642178335e-18 1.570017926633916e-18 1.588225170338423e-18
 8.712567261522041e-01 2.947882229841272e-26 3.246106021753955e-26 3.049961739613059e-26 1.806025469811757e-18 2.011278260896175e-18 1.876018048982415e-18 1.897773926563449e-18
 8.718405460020789e-01 3.517713763054508e-26 3.873584810636362e-26 3.639525446308017e-26 2.158023038764150e-18 2.403279963062670e-18 2.241657295820640e-18 2.267653432549153e-18
 8.724243658519538e-01 4.197696754093980e-26 4.622358577633952e-26 4.343054944625089e-26 2.578624402239766e-18 2.871682204892610e-18 2.678559079597317e-18 2.709621895576565e-18
 8.730081857018287e-01 5.009124424863073e-26 5.515874682733972e-26 5.182580799917596e-26 3.081200112651383e-18 3.431375087247527e-18 3.200612128943642e-18 3.237729109614185e-18
 8.735920055517036e-01 5.977406228935756e-26 6.582113137967105e-26 6.184392346420326e-26 3.681726536111025e-18 4.100150672524306e-18 3.824411974589548e-18 3.868763061074960e-18
 8.741758254015785e-01 7.132863581092691e-26 7.854462837269191e-26 7.379860971373848e-26 4.399293696320579e-18 4.899268544440535e-18 4.569788474761767e-18 4.622783571840960e-18
 8.747596452514534e-01 8.511679415896192e-26 9.372767177563827e-26 8.806422554992397e-26 5.256712089931247e-18 5.854131587286456e-18 5.460436147693421e-18 5.523759941637041e-18
 8.753434651013283e-01 1.015703131375221e-25 1.118457181801662e-25 1.050874983450886e-25 6.281237761175598e-18 6.995093464484464e-18 6.524667346548307e-18 6.600332857402790e-18
 8.759272849512032e-01 1.212044368207897e-25 1.334661365520184e-25 1.254015140878481e-25 7.505438682369541e-18 8.358423462274082e-18 7.796312216529084e-18 7.886724787057570e-18
 8.765111048010781e-01 1.446340133984936e-25 1.592659764662899e-25 1.496424119819201e-25 8.968229978176211e-18 9.987459366064945e-18 9.315794039293038e-18 9.423827794511397e-18
 8.770949246509530e-01 1.725927504077631e-25 1.900531713032121e-25 1.785693064497383e-25 1.071611089806125e-17 1.193398501343933e-17 1.113141414431741e-17 1.126050335193933e-17
 8.776787445008278e-01 2.059561924019586e-25 2.267918404628778e-25 2.130880604739026e-25 1.280464285371272e-17 1.425987630888521e-17 1.330088722771034e-17 1.345513546343609e-17
 8.782625643507027e-01 2.457691406927396e-25 2.706324830374769e-25 2.542796548323426e-25 1.530021550014642e-17 1.703906801805995e-17 1.589317587785015e-17 1.607748646535217e-17
 8.788463842005776e-01 2.932783739267166e-25 3.229480085793604e-25 3.034340417258058e-25 1.828215699427554e-17 2.035990385490521e-17 1.899068261709835e-17 1.921091448875970e-17
 8.794302040504525e-01 3.499716942805519e-25 3.853767334215056e-25 3.620905430678334e-25 2.184525550388271e-17 2.432794455731645e-17 2.269186913193864e-17 2.295502306437927e-17
 8.800140239003273e-01 4.176245221774420e-25 4.598736891688199e-25 4.320860586869402e-25 2.610277211079860e-17 2.906932320342542e-17 2.711438594132179e-17 2.742882708518194e-17
 8.805978437502022e-01 4.983554988504401e-25 5.487718503190393e-25 5.156125943001002e-25 3.119004087016614e-17 3.473475441360580e-17 3.239881197635035e-17 3.277453575337409e-17
 8.811816636000771e-01 5.946928382078685e-25 6.548551986435553e-25 6.152859110160453e-25 3.726877044922994e-17 4.150432486573896e-17 3.871312292922718e-17 3.916207274806536e-17
 8.817654834499520e-01 7.096535061309834e-25 7.814459126932723e-25 7.342274464602012e-25 4.453218406728391e-17 4.959321738363453e-17 4.625803039175272e-17 4.679447728089039e-17
 8.823493032998269e-01 8.468377070991115e-25 9.325084132044039e-25 8.761620732904973e-25 5.321116110187378e-17 5.925855052996465e-17 5.527336147968671e-17 5.591435770384172e-17
 8.829331231497017e-01 1.010541637477078e-24 1.112773523121403e-24 1.045534756914959e-24 6.358157556184669e-17 7.080755108863395e-17 6.604568170857325e-17 6.681160278635128e-17
 8.835169429995767e-01 1.205892036931083e-24 1.327886630965552e-24 1.247649766165151e-24 7.597306466712515e-17 8.460731918391803e-17 7.891740340012531e-17 7.983259575038950e-17
 8.841007628494516e-01 1.439006752183208e-24 1.584584498091720e-24 1.488836797065656e-24 9.077950622707979e-17 1.010964964012640e-16 9.429766911175641e-17 9.539122391336673e-17
 8.846845826993265e-01 1.717186342056565e-24 1.890906247541520e-24 1.776649212794583e-24 1.084715378185571e-16 1.207992077560134e-16 1.126753559957835e-16 1.139820338567847e-16
 8.852684025492014e-01 2.049142725023449e-24 2.256445142820416e-24 2.120100608857938e-24 1.296115156569802e-16 1.443417206236084e-16 1.346346144020915e-16 1.361959502275600e-16
 8.858522223990762e-01 2.445272030701522e-24 2.692649042534560e-24 2.529947112909985e-24 1.548713885917481e-16 1.724723500947383e-16 1.608734345808380e-16 1.627390577557748e-16
 8.864360422489511e-01 2.917980201290710e-24 3.213178941439127e-24 3.019024261143662e-24 1.850540553045987e-16 2.060852433956051e-16 1.922258315797741e-16 1.944550434266593e-16
 8.870198620988260e-01 3.482071541174896e-24 3.834336827829964e-24 3.602649002620011e-24 2.211188834909891e-16 2.462487992959564e-16 2.296883534223759e-16 2.323520120697738e-16
 8.876036819487009e-01 4.155212384581417e-24 4.575576258344156e-24 4.299099422849760e-24 2.642122020779647e-16 2.942396257336872e-16 2.744517550526654e-16 2.776345276214391e-16
 8.881875017985758e-01 4.958484404058406e-24 5.460111642130879e-24 5.130187212282392e-24 3.157037355810520e-16 3.515831148959751e-16 3.279388447068565e-16 3.317418983946279e-16
 8.887713216484506e-01 5.917044890293630e-24 6.515645318166199e-24 6.121940810349214e-24 3.772301385500067e-16 4.201019253064919e-16 3.918497055380468e-16 3.963939231315152e-16
 8.893551414983255e-01 7.060914684418211e-24 7.775235199072058e-24 7.305420622352046e-24 4.507470137007824e-16 5.019739117603625e-16 4.682157297126767e-16 4.736455517246071e-16
 8.899389613482004e-01 8.425918442349918e-24 9.278330157712069e-24 8.717691843358022e-24 5.385910669485000e-16 5.998013442076782e-16 5.594641822639399e-16 5.659521978067060e-16
 8.905227811980753e-01 1.005480668221043e-23 1.107200558702530e-23 1.040298535996764e-23 6.435543747135455e-16 7.166936154565406e-16 6.684953466298807e-16 6.762477789333222e-16
 8.911066010479501e-01 1.199859475983474e-23 1.321243783357732e-23 1.241408309197895e-23 7.689731238062093e-16 8.563660662471501e-16 7.987747036553160e-16 8.080379645695584e-16
 8.916904208978251e-01 1.431816071225952e-23 1.576666368758199e-23 1.481397116613231e-23 9.188336441384319e-16 1.023258068463600e-15 9.544430736049652e-16 9.655115954023324e-16
 8.922742407477000e-01 1.708615201766943e-23 1.881468004104992e-23 1.767781270349807e-23 1.097899104080025e-15 1.222674119276793e-15 1.140448221602563e-15 1.153673814986460e-15
 8.928580605975749e-01 2.038926099660231e-23 2.245194948094909e-23 2.109530201346283e-23 1.311860894936003e-15 1.460952430299668e-15 1.362702109018809e-15 1.378505144751493e-15