DF-ISE text

Info {
  version  = 1.0
  type     = xyplot
  datasets  = [ "hbar_omega" "gx" "gy" "gz" "spx" "spy" "spz" "lumi" ]
  functions = [ hbar_omega gx gy gz spx spy spz lumi ]
}

Data {

 1.222571435347670e+00 -1.456732519897766e-27 -1.456732520312753e-27 -8.765900351553679e-28 1.149334760169247e-16 1.149334760496420e-16 6.915887570697773e-17 9.967527592451482e-17
 1.223447530466568e+00 -1.687705120909067e-27 -1.687705121389850e-27 -1.015577994629651e-27 1.333476917704897e-16 1.333476918084489e-16 8.023925457200691e-17 1.156448793836485e-16
 1.224323625585467e+00 -1.955300644981896e-27 -1.955300645538910e-27 -1.176603829263235e-27 1.547120856227433e-16 1.547120856667840e-16 9.309484295397979e-17 1.341730047478357e-16
 1.225199720704365e+00 -2.265326165430868e-27 -2.265326166076202e-27 -1.363161950371493e-27 1.794992988904451e-16 1.794992989415418e-16 1.080100431281302e-16 1.556695469867057e-16
 1.226075815823264e+00 -2.624509572415334e-27 -2.624509573162994e-27 -1.579300871590768e-27 2.082576916851315e-16 2.082576917444148e-16 1.253148196105478e-16 1.806100676800313e-16
 1.226951910942162e+00 -3.040645589031632e-27 -3.040645589897833e-27 -1.829711074186297e-27 2.416234730130163e-16 2.416234730817975e-16 1.453919981984603e-16 2.095463147644247e-16
 1.227828006061061e+00 -3.522764942128662e-27 -3.522764943132209e-27 -2.119826805734646e-27 2.803347740585980e-16 2.803347741383985e-16 1.686857342816928e-16 2.431184274928964e-16
 1.228704101179960e+00 -4.081330359736674e-27 -4.081330360899338e-27 -2.455944021743486e-27 3.252479759326448e-16 3.252479760252310e-16 1.957113377320940e-16 2.820690965633233e-16
 1.229580196298858e+00 -4.728463649306987e-27 -4.728463650654005e-27 -2.845357030175846e-27 3.773566530285313e-16 3.773566531359510e-16 2.270666716819588e-16 3.272599926154804e-16
 1.230456291417757e+00 -5.478208785610342e-27 -5.478208787170942e-27 -3.296516804817146e-27 4.378135509810461e-16 4.378135511056756e-16 2.634453773126123e-16 3.796908264664446e-16
 1.231332386536655e+00 -6.346836718789166e-27 -6.346836720597215e-27 -3.819214403780340e-27 5.079560853389292e-16 5.079560854835252e-16 3.056522171606896e-16 4.405214626610480e-16
 1.232208481655554e+00 -7.353198518666811e-27 -7.353198520761546e-27 -4.424793474394948e-27 5.893359249304086e-16 5.893359250981702e-16 3.546208763051515e-16 5.110975754445769e-16
 1.233084576774452e+00 -8.519134520640009e-27 -8.519134523066880e-27 -5.126396457096468e-27 6.837533142416088e-16 6.837533144362487e-16 4.114346151586525e-16 5.929804146121700e-16
 1.233960671893351e+00 -9.869948354108762e-27 -9.869948356920459e-27 -5.939249832438046e-27 7.932968939397007e-16 7.932968941655229e-16 4.773502306554125e-16 6.879813395868785e-16
 1.234836767012250e+00 -1.143495614281309e-26 -1.143495614607062e-26 -6.880994602860990e-27 9.203899002734349e-16 9.203899005354362e-16 5.538258557984867e-16 7.982018855357858e-16
 1.235712862131148e+00 -1.324812279821424e-26 -1.324812280198829e-26 -7.972069182779187e-27 1.067843765161653e-15 1.067843765465628e-15 6.425532124201209e-16 9.260802476824675e-16
 1.236588957250047e+00 -1.534879921763032e-26 -1.534879922200279e-26 -9.236153008185380e-27 1.238920302457378e-15 1.238920302810052e-15 7.454950304981964e-16 1.074445211921875e-15
 1.237465052368945e+00 -1.778257638922155e-26 -1.778257639428734e-26 -1.070068049505389e-26 1.437403855768347e-15 1.437403856177522e-15 8.649284616361473e-16 1.246578724527339e-15
 1.238341147487844e+00 -2.060227494370785e-26 -2.060227494957692e-26 -1.239743650292977e-26 1.667685003526311e-15 1.667685004001038e-15 1.003495446881666e-15 1.446288484803005e-15
 1.239217242606742e+00 -2.386909163293905e-26 -2.386909163973874e-26 -1.436324622938545e-26 1.934857672595861e-15 1.934857673146642e-15 1.164261152860674e-15 1.677992166201059e-15
 1.240093337725641e+00 -2.765392762200992e-26 -2.765392762988785e-26 -1.664077451093279e-26 2.244831808254922e-15 2.244831808893942e-15 1.350781768640763e-15 1.946815128596543e-15
 1.240969432844540e+00 -3.203892742844329e-26 -3.203892743757036e-26 -1.927945188098796e-26 2.604464092419127e-15 2.604464093160522e-15 1.567183162757358e-15 2.258703782779002e-15
 1.241845527963438e+00 -3.711926191471969e-26 -3.711926192529399e-26 -2.233654748714539e-26 3.021709601126963e-15 3.021709601987128e-15 1.818252140013125e-15 2.620557114375738e-15
 1.242721623082337e+00 -4.300519403845798e-26 -4.300519405070909e-26 -2.587841215810913e-26 3.505797755384377e-15 3.505797756382350e-15 2.109542316311107e-15 3.040379276025945e-15
 1.243597718201235e+00 -4.982447220277584e-26 -4.982447221696959e-26 -2.998191860431187e-26 4.067436456719440e-15 4.067436457877288e-15 2.447496953062366e-15 3.527456622553031e-15
 1.244473813320134e+00 -5.772510316114726e-26 -5.772510317759162e-26 -3.473613001577566e-26 4.719048922107521e-15 4.719048923450852e-15 2.839591467773256e-15 4.092563104443877e-15
 1.245349908439032e+00 -6.687856467070319e-26 -6.687856468975515e-26 -4.024423327897318e-26 5.475048456070472e-15 5.475048457629015e-15 3.294498772553436e-15 4.748198562084308e-15
 1.246226003557931e+00 -7.748352763441554e-26 -7.748352765648861e-26 -4.662577877905886e-26 6.352157236728586e-15 6.352157238536814e-15 3.822281097122661e-15 5.508865190796020e-15
 1.247102098676830e+00 -8.977016853314558e-26 -8.977016855871881e-26 -5.401927540952809e-26 7.369776165940773e-15 7.369776168038684e-15 4.434612538591374e-15 6.391388290856944e-15
 1.247978193795728e+00 -1.040051657632059e-25 -1.040051657928344e-25 -6.258519712260342e-26 8.550413962923030e-15 8.550413965357011e-15 5.145037259796464e-15 7.415288396025502e-15
 1.248854288914627e+00 -1.204974883422890e-25 -1.204974883766156e-25 -7.250946628795890e-26 9.920184990874669e-15 9.920184993698576e-15 5.969269046322933e-15 8.603213010298727e-15
 1.249730384033525e+00 -1.396051026484537e-25 -1.396051026882236e-25 -8.400748947862101e-26 1.150938682611781e-14 1.150938682939410e-14 6.925538846956979e-15 9.981437500822965e-15
 1.250606479152424e+00 -1.617427427870916e-25 -1.617427428331679e-25 -9.732883329591113e-26 1.335317034269806e-14 1.335317034649921e-14 8.034997983431464e-15 1.158044622420958e-14
 1.251482574271323e+00 -1.873909132717825e-25 -1.873909133251652e-25 -1.127626417403220e-25 1.549231713127226e-14 1.549231713568236e-14 9.322185946390118e-15 1.343560673778158e-14
 1.252358669390221e+00 -2.171063194584204e-25 -2.171063195202686e-25 -1.306439127341412e-25 1.797414144468961e-14 1.797414144980618e-14 1.081557312275039e-14 1.558795200574873e-14
 1.253234764509120e+00 -2.515339521685940e-25 -2.515339522402495e-25 -1.513607700538671e-25 2.085353661642453e-14 2.085353662236076e-14 1.254819045665894e-14 1.808508789848141e-14
 1.254110859628018e+00 -2.914210888507739e-25 -2.914210889337920e-25 -1.753628885408858e-25 2.419418909281925e-14 2.419418909970639e-14 1.455835996863964e-14 2.098224605372176e-14
 1.254986954746917e+00 -3.376335152365864e-25 -3.376335153327698e-25 -2.031712554969535e-25 2.806998692662139e-14 2.806998693461184e-14 1.689054228786079e-14 2.434350538303134e-14
 1.255863049865815e+00 -3.911743196574133e-25 -3.911743197688490e-25 -2.353894801802286e-25 3.256665387948984e-14 3.256665388876036e-14 1.959631993999854e-14 2.824320923608291e-14
 1.256739144984714e+00 -4.532056680402636e-25 -4.532056681693702e-25 -2.727168969275897e-25 3.778364527004962e-14 3.778364528080521e-14 2.273553813514792e-14 3.276760956200092e-14
 1.257615240103613e+00 -5.250740323147714e-25 -5.250740324643520e-25 -3.159637463700461e-25 4.383634749208907e-14 4.383634750456765e-14 2.637762828304991e-14 3.801677442656888e-14
 1.258491335222511e+00 -6.083394199393884e-25 -6.083394201126887e-25 -3.660687643250314e-25 5.085862984249365e-14 5.085862985697119e-14 3.060314350351907e-14 4.410680106766130e-14
 1.259367430341410e+00 -7.048092391233869e-25 -7.048092393241693e-25 -4.241195602225977e-25 5.900580508908217e-14 5.900580510587895e-14 3.550554008777277e-14 5.117238342757796e-14
 1.260243525460308e+00 -8.165775349669270e-25 -8.165775351995494e-25 -4.913762274861394e-25 6.845806424677898e-14 6.845806426626647e-14 4.119324430495862e-14 5.936979093933469e-14
 1.261119620579207e+00 -9.460704483511038e-25 -9.460704486206151e-25 -5.692986984582106e-25 7.942446151650981e-14 7.942446153911892e-14 4.779205025788195e-14 6.888032443783688e-14
 1.261995715698105e+00 -1.096098884514535e-24 -1.096098884826785e-24 -6.595784377613732e-25 9.214753750660973e-14 9.214753753284055e-14 5.544790181222088e-14 7.991432561722371e-14
 1.262871810817004e+00 -1.269919534785681e-24 -1.269919535147449e-24 -7.641751621776059e-25 1.069086829703179e-13 1.069086830007508e-13 6.433012011619775e-14 9.271582869575547e-14
 1.263747905935903e+00 -1.471305576301534e-24 -1.471305576720672e-24 -8.853593842642872e-25 1.240343616673423e-13 1.240343617026502e-13 7.463514808064165e-14 1.075679571502114e-13
 1.264624001054801e+00 -1.704628584669124e-24 -1.704628585154730e-24 -1.025761703368042e-24 1.439033299543199e-13 1.439033299952836e-13 8.659089462034087e-14 1.247991848566481e-13
 1.265500096173700e+00 -1.974953437981579e-24 -1.974953438544197e-24 -1.188429914197280e-24 1.669550127485532e-13 1.669550127960790e-13 1.004617747194366e-13 1.447906000880230e-13
 1.266376191292598e+00 -2.288148272668311e-24 -2.288148273320146e-24 -1.376895172848735e-24 1.936992210786376e-13 1.936992211337765e-13 1.165545567693720e-13 1.679843329939287e-13
 1.267252286411497e+00 -2.651011878467845e-24 -2.651011879223050e-24 -1.595248656840936e-24 2.247274261002136e-13 2.247274261641853e-13 1.352251464779943e-13 1.948933329141311e-13
 1.268128381530395e+00 -3.071421298456340e-24 -3.071421299331310e-24 -1.848230383557130e-24 2.607258388707411e-13 2.607258389449600e-13 1.568864573573311e-13 2.261127117243441e-13
 1.269004476649294e+00 -3.558502838764202e-24 -3.558502839777928e-24 -2.141332115487959e-24 3.024905851046655e-13 3.024905851907732e-13 1.820175418230973e-13 2.623329040395120e-13
 1.269880571768193e+00 -4.122830200899558e-24 -4.122830202074048e-24 -2.480916586525981e-24 3.509453104528407e-13 3.509453105527418e-13 2.111741848126186e-13 3.043549352727337e-13
 1.270756666887091e+00 -4.776654038503699e-24 -4.776654039864449e-24 -2.874355637938831e-24 4.071616055914505e-13 4.071616057073543e-13 2.450011941656235e-13 3.531081351548095e-13
 1.271632762005990e+00 -5.534167922674656e-24 -5.534167924251194e-24 -3.330190263229337e-24 4.723827027538535e-13 4.723827028883224e-13 2.842466595291101e-13 4.096706883904287e-13
 1.272508857124888e+00 -6.411816490537255e-24 -6.411816492363816e-24 -3.858316036800129e-24 5.480509676730284e-13 5.480509678290380e-13 3.297784950731540e-13 4.752934768584068e-13
 1.273384952243787e+00 -7.428652467664594e-24 -7.428652469780824e-24 -4.470197952499964e-24 6.358397948208379e-13 6.358397950018371e-13 3.826036318007913e-13 5.514277405411555e-13
 1.274261047362686e+00 -8.606750316170095e-24 -8.606750318621941e-24 -5.179119336715634e-24 7.376906111895790e-13 7.376906113995712e-13 4.438902838190665e-13 6.397571688027390e-13
 1.275137142481584e+00 -9.971685489818815e-24 -9.971685492659488e-24 -6.000470240543538e-24 8.558558068123796e-13 8.558558070560099e-13 5.149937809043256e-13 7.422351315909051e-13
 1.276013237600483e+00 -1.155308970206881e-23 -1.155308970535999e-23 -6.952081572806757e-24 9.929485412606394e-13 9.929485415432959e-13 5.974865385465000e-13 8.611278737834784e-13
 1.276889332719381e+00 -1.338529426347414e-23 -1.338529426728727e-23 -8.054612228885505e-24 1.152000527385195e-12 1.152000527713126e-12 6.931928281371514e-13 9.990646277451574e-13
 1.277765427838280e+00 -1.550807545719093e-23 -1.550807546160879e-23 -9.331997621063011e-24 1.336529069943486e-12 1.336529070323944e-12 8.042291160964512e-13 1.159095752121294e-12
 1.278641522957178e+00 -1.796751813698343e-23 -1.796751814210191e-23 -1.081196934936163e-23 1.550614841379413e-12 1.550614841820815e-12 9.330508638628681e-13 1.344760182354366e-12
 1.279517618076077e+00 -2.081701629920657e-23 -2.081701630513681e-23 -1.252665729658591e-23 1.798992114416678e-12 1.798992114928786e-12 1.082506823516372e-12 1.560163684287279e-12
 1.280393713194976e+00 -2.411843235452947e-23 -2.411843236140021e-23 -1.451328722107001e-23 2.087153446541686e-12 2.087153447135820e-12 1.255902029531508e-12 1.810069641069671e-12
 1.281269808313874e+00 -2.794344027120224e-23 -2.794344027916261e-23 -1.681498899428302e-23 2.421471130973287e-12 2.421471131662588e-12 1.457070879422075e-12 2.100004380685983e-12
 1.282145903432773e+00 -3.237508175434563e-23 -3.237508176356851e-23 -1.948173303304262e-23 2.809338099412387e-12 2.809338100212099e-12 1.690461919097686e-12 2.436379372907391e-12
 1.283021998551671e+00 -3.750956925173373e-23 -3.750956926241925e-23 -2.257141525978120e-23 3.259331391926789e-12 3.259331392854597e-12 1.961236207533843e-12 2.826632997438409e-12
 1.283898093670570e+00 -4.345837493627827e-23 -4.345837494865844e-23 -2.615111414953573e-23 3.781401808261816e-12 3.781401809338239e-12 2.275381435581128e-12 3.279395017727061e-12
 1.284774188789468e+00 -5.035065102538299e-23 -5.035065103972665e-23 -3.029854715918174e-23 4.387093933710999e-12 4.387093934959838e-12 2.639844322046577e-12 3.804677396905805e-12
 1.285650283908367e+00 -5.833603399227757e-23 -5.833603400889600e-23 -3.510375816399302e-23 5.089801404222562e-12 5.089801405671436e-12 3.062684214266643e-12 4.414095674720213e-12
 1.286526379027266e+00 -6.758789356071787e-23 -6.758789357997194e-23 -4.067107254297093e-23 5.905063054510393e-12 5.905063056191345e-12 3.553251289194568e-12 5.121125799965435e-12
 1.287402474146164e+00 -7.830709703296435e-23 -7.830709705527206e-23 -4.712136236641328e-23 6.850906496795783e-12 6.850906498745967e-12 4.122393294902661e-12 5.941402096814802e-12
 1.288278569265063e+00 -9.072637069161302e-23 -9.072637071745860e-23 -5.459467087318221e-23 7.948246726421176e-12 7.948246728683748e-12 4.782695403382817e-12 6.893062952829247e-12
 1.289154664383961e+00 -1.051153529816177e-22 -1.051153530115623e-22 -6.325325322729232e-23 9.221348567125222e-12 9.221348569750190e-12 5.548758477561569e-12 7.997151871478992e-12
 1.290030759502860e+00 -1.217864492012010e-22 -1.217864492358949e-22 -7.328509958315505e-23 1.069836318013536e-11 1.069836318318078e-11 6.437521904707166e-12 9.278082756007768e-12
 1.290906854621758e+00 -1.411016148357493e-22 -1.411016148759455e-22 -8.490801696252993e-23 1.241195049863826e-11 1.241195050217147e-11 7.468638133680735e-12 1.076417971149682e-11
 1.291782949740657e+00 -1.634802148350916e-22 -1.634802148816632e-22 -9.837435858132515e-23 1.440000134881387e-11 1.440000135291301e-11 8.664907196544556e-12 1.248830329942381e-11
 1.292659044859556e+00 -1.894081294996448e-22 -1.894081295536023e-22 -1.139765033243428e-22 1.670647522245031e-11 1.670647522720602e-11 1.005278082115088e-11 1.448857709026907e-11
 1.293535139978454e+00 -2.194483047125091e-22 -2.194483047750243e-22 -1.320532043564347e-22 1.938237222294207e-11 1.938237222845949e-11 1.166294727982852e-11 1.680923057707669e-11
 1.294411235097353e+00 -2.542529756202797e-22 -2.542529756927099e-22 -1.529969447328461e-22 2.248686067269376e-11 2.248686067909491e-11 1.353100990414615e-11 1.950157708531160e-11
 1.295287330216251e+00 -2.945778292067039e-22 -2.945778292906217e-22 -1.772624597399792e-22 2.608858531121938e-11 2.608858531864581e-11 1.569827426644449e-11 2.262514829876989e-11
 1.296163425335150e+00 -3.412984133090916e-22 -3.412984134063188e-22 -2.053766110350062e-22 3.026718500556019e-11 3.026718501417619e-11 1.821266143113427e-11 2.624901048362355e-11
 1.297039520454049e+00 -3.954291484126882e-22 -3.954291485253362e-22 -2.379498270093277e-22 3.511505352635451e-11 3.511505353635046e-11 2.112976746579392e-11 3.045329150949963e-11
 1.297915615572947e+00 -4.581453550821691e-22 -4.581453552126833e-22 -2.756893578142486e-22 4.073938231633326e-11 4.073938232793021e-11 2.451409263546024e-11 3.533095242657457e-11
 1.298791710691846e+00 -5.308087753794223e-22 -5.308087755306361e-22 -3.194146328958732e-22 4.726453041193914e-11 4.726453042539362e-11 2.844046745463979e-11 4.098984276399085e-11
 1.299667805810744e+00 -6.149971424958858e-22 -6.149971426710826e-22 -3.700750545465637e-22 5.483477391104881e-11 5.483477392665828e-11 3.299570712344955e-11 4.755508498705221e-11
 1.300543900929643e+00 -7.125384407434957e-22 -7.125384409464798e-22 -4.287706138836843e-22 6.361749577023643e-11 6.361749578834593e-11 3.828053092308003e-11 5.517184082722080e-11
 1.301419996048541e+00 -8.255505999096098e-22 -8.255506001447881e-22 -4.967757769615022e-22 7.380688644908268e-11 7.380688647009274e-11 4.441178900305311e-11 6.400852064074285e-11
 1.302296091167440e+00 -9.564874860019703e-22 -9.564874862744484e-22 -5.755671597411574e-22 8.562823721200610e-11 8.562823723638122e-11 5.152504578805819e-11 7.426050674548184e-11
 1.303172186286339e+00 -1.108192187151293e-21 -1.108192187466989e-21 -6.668555929279527e-22 9.934292099942329e-11 9.934292102770241e-11 5.977757711561338e-11 8.615447304757969e-11
 1.304048281405237e+00 -1.283958751873339e-21 -1.283958752239105e-21 -7.726232730231628e-22 1.152541709795301e-10 1.152541710123387e-10 6.935184736177589e-11 9.995339645121488e-11
 1.304924376524136e+00 -1.487603720457833e-21 -1.487603720881613e-21 -8.951668063982696e-22 1.337137845253598e-10 1.337137845634232e-10 8.045954342264229e-11 1.159623708371418e-10
 1.305800471643034e+00 -1.723549002938389e-21 -1.723549003429384e-21 -1.037147081183986e-21 1.551299008190594e-10 1.551299008632190e-10 9.334625472913792e-11 1.345353521371388e-10
 1.306676566761933e+00 -1.996917903523121e-21 -1.996917904091991e-21 -1.201647050053198e-21 1.799760240185814e-10 1.799760240698138e-10 1.082969027535912e-10 1.560829836139955e-10
 1.307552661880831e+00 -2.313646376881301e-21 -2.313646377540397e-21 -1.392238678786275e-21 2.088014914556636e-10 2.088014915151016e-10 1.256420400344227e-10 1.810816743350626e-10
 1.308428756999730e+00 -2.680611932492431e-21 -2.680611933256068e-21 -1.613060514572945e-21 2.422436182770808e-10 2.422436183460384e-10 1.457651579663888e-10 2.100841315298360e-10
 1.309304852118629e+00 -3.105782986550405e-21 -3.105782987435162e-21 -1.868907558647918e-21 2.810417869992394e-10 2.810417870792417e-10 1.691111649027751e-10 2.437315796604187e-10
 1.310180947237527e+00 -3.598391905008055e-21 -3.598391906033147e-21 -2.165335395090355e-21 3.260537934389269e-10 3.260537935317421e-10 1.961962219859321e-10 2.827679363188671e-10
 1.311057042356426e+00 -4.169135495884488e-21 -4.169135497072169e-21 -2.508780837240702e-21 3.782748103599984e-10 3.782748104676790e-10 2.276191541350001e-10 3.280562583208926e-10
 1.311933137475324e+00 -4.830407305123703e-21 -4.830407306499760e-21 -2.906701711931505e-21 4.388593880402592e-10 4.388593881651864e-10 2.640746884384428e-10 3.805978215479628e-10
 1.312809232594223e+00 -5.596566761032003e-21 -5.596566762626323e-21 -3.367738817382005e-21 5.091469780932277e-10 5.091469782381624e-10 3.063688125933618e-10 4.415542563082506e-10
 1.313685327713121e+00 -6.484251012633579e-21 -6.484251014480778e-21 -3.901903572194304e-21 5.906915447594270e-10 5.906915449275750e-10 3.554365928962614e-10 5.122732275277544e-10
 1.314561422832020e+00 -7.512736234563104e-21 -7.512736236703290e-21 -4.520795430880378e-21 6.852959182336619e-10 6.852959184287398e-10 4.123628456572726e-10 5.943182274398915e-10
 1.315437517950919e+00 -8.704356245487933e-21 -8.704356247967575e-21 -5.237853787854341e-21 7.950516494141833e-10 7.950516496405045e-10 4.784061189828303e-10 6.895031393458395e-10
 1.316313613069817e+00 -1.008498753187259e-20 -1.008498753474555e-20 -6.068649840896012e-21 9.223852470648878e-10 9.223852473274552e-10 5.550265150452506e-10 7.999323364791980e-10
 1.317189708188716e+00 -1.168461121118400e-20 -1.168461121451264e-20 -7.031224752988563e-21 1.070111819458772e-09 1.070111819763392e-09 6.439179678479320e-10 9.280472023566987e-10
 1.318065803307614e+00 -1.353796413973802e-20 -1.353796414359464e-20 -8.146481457019920e-21 1.241497306239916e-09 1.241497306593324e-09 7.470456899793974e-10 1.076680100937545e-09
 1.318941898426513e+00 -1.568529330659112e-20 -1.568529331105948e-20 -9.438638612949965e-21 1.440330676118674e-09 1.440330676528681e-09 8.666896161042771e-10 1.249116989583877e-09
 1.319817993545412e+00 -1.817322989823367e-20 -1.817322990341077e-20 -1.093575657698452e-20 1.671007686296151e-09 1.671007686771823e-09 1.005494803489126e-09 1.449170058852366e-09
 1.320694088664310e+00 -2.105580201810470e-20 -2.105580202410295e-20 -1.267034680640628e-20 1.938628055071234e-09 1.938628055623088e-09 1.166529903637372e-09 1.681262004777231e-09
 1.321570183783209e+00 -2.439560805653811e-20 -2.439560806348778e-20 -1.468007793593990e-20 2.249108195560782e-09 2.249108196201018e-09 1.353354997506802e-09 1.950523796422867e-09
 1.322446278902107e+00 -2.826517619613663e-20 -2.826517620418864e-20 -1.700859386126898e-20 2.609312002418102e-09 2.609312003160878e-09 1.570100293750669e-09 2.262908099776550e-09
 1.323322374021006e+00 -3.274853958048109e-20 -3.274853958981032e-20 -1.970646159814951e-20 3.027202582463035e-09 3.027202583324766e-09 1.821557429530575e-09 2.625320865106125e-09
 1.324198469139904e+00 -3.794306135841602e-20 -3.794306136922503e-20 -2.283226950436337e-20 3.512018283064236e-09 3.512018284063979e-09 2.113285392006300e-09 3.045773986378171e-09
 1.325074564258803e+00 -4.396154924361172e-20 -4.396154925613528e-20 -2.645389971773717e-20 4.074476909168267e-09 4.074476910328106e-09 2.451733401769069e-09 3.533562407088481e-09
 1.325950659377702e+00 -5.093470551757177e-20 -5.093470553208180e-20 -3.065000244753922e-20 4.727012642918057e-09 4.727012644263655e-09 2.844383474391234e-09 4.099469587190982e-09
 1.326826754496600e+00 -5.901396569039576e-20 -5.901396570720730e-20 -3.551170414101292e-20 5.484050902622854e-09 5.484050904183962e-09 3.299915811207024e-09 4.756005872671279e-09
 1.327702849615499e+00 -6.837478747565560e-20 -6.837478749513388e-20 -4.114458662681060e-20 6.362327216402047e-09 6.362327218213165e-09 3.828400675025931e-09 5.517685036547048e-09
 1.328578944734397e+00 -7.922046151703155e-20 -7.922046153959953e-20 -4.767098022299436e-20 7.381257158657003e-09 7.381257160758171e-09 4.441520991861662e-09 6.401345103758945e-09
 1.329455039853296e+00 -9.178652663747783e-20 -9.178652666362539e-20 -5.523262061698352e-20 8.563365526138060e-09 8.563365528575725e-09 5.152830598879566e-09 7.426520551197783e-09
 1.330331134972194e+00 -1.063458855127626e-19 -1.063458855430578e-19 -6.399372722646674e-20 9.934784239704992e-09 9.934784242533046e-09 5.978053846628826e-09 8.615874109622288e-09
 1.331207230091093e+00 -1.232147318854184e-19 -1.232147319205191e-19 -7.414456990544716e-20 1.152582997685862e-08 1.152582998013958e-08 6.935433177640449e-09 9.995697711546216e-09
 1.332083325209992e+00 -1.427594180631753e-19 -1.427594181038437e-19 -8.590560146727611e-20 1.337167430233888e-08 1.337167430614528e-08 8.046132363850747e-09 1.159649365744497e-08
 1.332959420328890e+00 -1.654044118704827e-19 -1.654044119176020e-19 -9.953224578701298e-20 1.551312110846217e-08 1.551312111287820e-08 9.334704315472392e-09 1.345364884560426e-08
 1.333835515447789e+00 -1.916415158867595e-19 -1.916415159413531e-19 -1.153204454858960e-19 1.799750854861452e-08 1.799750855373773e-08 1.082963380108344e-08 1.560821696781189e-08
 1.334711610566687e+00 -2.220405492242296e-19 -2.220405492874831e-19 -1.336130897002590e-19 2.087975539881057e-08 2.087975540475427e-08 1.256396707436044e-08 1.810782595930842e-08
 1.335587705685586e+00 -2.572617238677157e-19 -2.572617239410032e-19 -1.548074615545465e-19 2.422357497431881e-08 2.422357498121436e-08 1.457604232365578e-08 2.100773075972965e-08
 1.336463800804484e+00 -2.980699844084352e-19 -2.980699844933476e-19 -1.793638671083466e-19 2.810288343156021e-08 2.810288343956005e-08 1.691033708895007e-08 2.437203465335678e-08
 1.337339895923383e+00 -3.453516226531662e-19 -3.453516227515477e-19 -2.078156332116119e-19 3.260343358163724e-08 3.260343359091826e-08 1.961845137582991e-08 2.827510618279513e-08
 1.338215991042282e+00 -4.001335280062217e-19 -4.001335281202093e-19 -2.407806914384185e-19 3.782471032594005e-08 3.782471033670729e-08 2.276024819521602e-08 3.280322295262112e-08
 1.339092086161180e+00 -4.636054917772531e-19 -4.636054919093224e-19 -2.789749997231906e-19 4.388212960637981e-08 4.388212961887138e-08 2.640517673682990e-08 3.805647865402703e-08
 1.339968181280079e+00 -5.371460499076376e-19 -5.371460500606573e-19 -3.232280932433256e-19 5.090958947077944e-08 5.090958948527150e-08 3.063380742077625e-08 4.415099545894240e-08
 1.340844276398977e+00 -6.223524254722718e-19 -6.223524256495642e-19 -3.745011023451644e-19 5.906242963594592e-08 5.906242965275874e-08 3.553961275427692e-08 5.122149068099386e-08
 1.341720371517876e+00 -7.210752213729554e-19 -7.210752215783712e-19 -4.339076289017953e-19 6.852086495905118e-08 6.852086497855651e-08 4.123103335306553e-08 5.942425443022440e-08
 1.342596466636774e+00 -8.354586168283596e-19 -8.354586170663600e-19 -5.027379345851448e-19 7.949396870160049e-08 7.949396872422938e-08 4.783387478926259e-08 6.894060407169749e-08
 1.343472561755673e+00 -9.679869408249546e-19 -9.679869411007087e-19 -5.824869664797615e-19 9.222429362088224e-08 9.222429364713499e-08 5.549408823893120e-08 7.998089183564948e-08
 1.344348656874572e+00 -1.121538634222456e-18 -1.121538634541953e-18 -6.748868288257456e-19 1.069932330200401e-07 1.069932330504971e-07 6.438099638464649e-08 9.278915415172791e-08
 1.345224751993470e+00 -1.299448772713540e-18 -1.299448773083720e-18 -7.819444062630435e-19 1.241272402410930e-07 1.241272402764274e-07 7.469103586860571e-08 1.076485054620421e-07
 1.346100847112369e+00 -1.505581508810288e-18 -1.505581509239189e-18 -9.059849558585038e-19 1.440050440569585e-07 1.440050440979514e-07 8.665209900765603e-08 1.248873957208553e-07
 1.346976942231267e+00 -1.744414006506208e-18 -1.744414007003149e-18 -1.049702614860290e-18 1.670660194277741e-07 1.670660194753316e-07 1.005285707252330e-07 1.448868698761129e-07
 1.347853037350166e+00 -2.021133691927620e-18 -2.021133692503390e-18 -1.216218921360203e-18 1.938198986202420e-07 1.938198986754153e-07 1.166271720194162e-07 1.680889897716912e-07
 1.348729132469064e+00 -2.341750932563474e-18 -2.341750933230581e-18 -1.409150619116252e-18 2.248580373104151e-07 2.248580373744238e-07 1.353037391105651e-07 1.950066045984680e-07
 1.349605227587963e+00 -2.713229592831821e-18 -2.713229593604748e-18 -1.632688219476017e-18 2.608664846547255e-07 2.608664847289845e-07 1.569710880900631e-07 2.262346858245910e-07
 1.350481322706861e+00 -3.143638302090384e-18 -3.143638302985924e-18 -1.891687027030908e-18 3.026411461809777e-07 3.026411462671287e-07 1.821081388808029e-07 2.624634771096364e-07
 1.351357417825760e+00 -3.642325721159226e-18 -3.642325722196830e-18 -2.191772606395532e-18 3.511053746008896e-07 3.511053747008359e-07 2.112705001499557e-07 3.044937498172271e-07
 1.352233512944659e+00 -4.220123614777855e-18 -4.220123615980065e-18 -2.539462981231777e-18 4.073303773011809e-07 4.073303774171326e-07 2.451027491006263e-07 3.532545012729799e-07
 1.353109608063557e+00 -4.889582141485461e-18 -4.889582142878381e-18 -2.942310220134744e-18 4.725588915160983e-07 4.725588916506183e-07 2.843526775241834e-07 4.098234868969667e-07
 1.353985703182456e+00 -5.665242472325261e-18 -5.665242473939140e-18 -3.409064485170378e-18 5.482326503969572e-07 5.482326505530185e-07 3.298878189475757e-07 4.754510399658505e-07
 1.354861798301354e+00 -6.563952660732796e-18 -6.563952662602699e-18 -3.949864106849884e-18 6.360242469690020e-07 6.360242471500544e-07 3.827146221196645e-07 5.515877054129070e-07
 1.355737893420253e+00 -7.605233625588468e-18 -7.605233627755007e-18 -4.576455814743421e-18 7.378741001534356e-07 7.378741003634803e-07 4.440006945612446e-07 6.399162983593868e-07
 1.356613988539151e+00 -8.811703198124654e-18 -8.811703200634882e-18 -5.302449908067740e-18 8.560333397816269e-07 8.560333400253073e-07 5.151006077479120e-07 7.423890958516154e-07
 1.357490083658050e+00 -1.020956744481396e-17 -1.020956744772240e-17 -6.143615909652827e-18 9.931135583292067e-07 9.931135586119086e-07 5.975858342016206e-07 8.612709837142452e-07
 1.358366178776949e+00 -1.182918993995372e-17 -1.182918994332356e-17 -7.118225126204539e-18 1.152144528841898e-06 1.152144529169871e-06 6.932794780756686e-07 9.991895120291459e-07
 1.359242273895847e+00 -1.370575135513312e-17 -1.370575135903755e-17 -8.247447556828348e-18 1.336641164563470e-06 1.336641164943962e-06 8.042965667455030e-07 1.159192965417645e-06
 1.360118369014746e+00 -1.588001369494584e-17 -1.588001369946964e-17 -9.555811772520347e-18 1.550681200001477e-06 1.550681200442897e-06 9.330907938060892e-07 1.344817731416821e-06
 1.360994464133644e+00 -1.839920578180784e-17 -1.839920578704929e-17 -1.107173775741055e-17 1.798995310089691e-06 1.798995310601799e-06 1.082508746440339e-06 1.560166455710610e-06
 1.361870559252543e+00 -2.131804922694348e-17 -2.131804923301643e-17 -1.282815428767722e-17 2.087071658961463e-06 2.087071659555575e-06 1.255852815511669e-06 1.809998711342902e-06
 1.362746654371441e+00 -2.469994717677641e-17 -2.469994718381279e-17 -1.486321426069962e-17 2.421277188711823e-06 2.421277189401072e-06 1.456954178603424e-06 2.099836185572106e-06
 1.363622749490340e+00 -2.861836166040334e-17 -2.861836166855598e-17 -1.722112351507240e-17 2.808998328441928e-06 2.808998329241548e-06 1.690257468817165e-06 2.436084708833547e-06
 1.364498844609239e+00 -3.315840946135137e-17 -3.315840947079738e-17 -1.995310114779283e-17 3.258804233018845e-06 3.258804233946503e-06 1.960919000367689e-06 2.826175822444346e-06
 1.365374939728137e+00 -3.841871118450741e-17 -3.841871119545193e-17 -2.311849219185739e-17 3.780636158834121e-06 3.780636159910327e-06 2.274920721584012e-06 3.278731013442821e-06
 1.366251034847036e+00 -4.451353369007768e-17 -4.451353370275845e-17 -2.678605682771643e-17 4.386027161403055e-06 4.386027162651597e-06 2.639202413459470e-06 3.803752245838041e-06