DF-ISE text

Info {
  version  = 1.0
  type     = xyplot
  datasets  = [ "hbar_omega" "gx" "gy" "gz" "spx" "spy" "spz" "lumi" ]
  functions = [ hbar_omega gx gy gz spx spy spz lumi ]
}

Data {

 1.411536216834828e+00 -7.492587091107722e-27 -4.268569052183556e-27 -1.047748326872808e-26 7.862334782607181e-16 4.479216393864009e-16 1.099453101261536e-15 7.778694063028849e-16
 1.412412311953726e+00 -8.681408405925528e-27 -4.945847248793394e-27 -1.213990711299586e-26 9.121134464592161e-16 5.196361660256284e-16 1.275481119972604e-15 9.024102441524829e-16
 1.413288407072625e+00 -1.005885950893919e-26 -5.730588897802460e-27 -1.406610706367058e-26 1.058147028994960e-15 6.028323202259982e-16 1.479691548104507e-15 1.046890299108489e-15
 1.414164502191523e+00 -1.165487081941848e-26 -6.639845527589596e-27 -1.629793721778296e-26 1.227560791977538e-15 6.993482948670771e-16 1.716596350886044e-15 1.214501812576887e-15
 1.415040597310422e+00 -1.350412199615892e-26 -7.693374335031382e-27 -1.888389291350909e-26 1.424097860090910e-15 8.113165691566379e-16 1.991429838679134e-15 1.408948089308894e-15
 1.415916692429321e+00 -1.564679554290658e-26 -8.914067518756238e-27 -2.188016455685629e-26 1.652100613647547e-15 9.412110216081343e-16 2.310264308878182e-15 1.634525314711288e-15
 1.416792787548219e+00 -1.812944999764199e-26 -1.032844973999535e-26 -2.535185867201625e-26 1.916606624547163e-15 1.091901585296427e-15 2.680144200827367e-15 1.896217470223652e-15
 1.417668882667118e+00 -2.100603168193102e-26 -1.196725452188513e-26 -2.937441271133307e-26 2.223459950503606e-15 1.266717652805563e-15 3.109241727431754e-15 2.199806443580308e-15
 1.418544977786016e+00 -2.433904699787690e-26 -1.386609211364124e-26 -3.403523437180929e-26 2.579440246179935e-15 1.469521631569383e-15 3.607037421574810e-15 2.551999766441376e-15
 1.419421072904915e+00 -2.820092074936265e-26 -1.606622333381709e-26 -3.943560104424341e-26 2.992412543454302e-15 1.704794274532289e-15 4.184529585833561e-15 2.960578801273384e-15
 1.420297168023813e+00 -3.267557000716493e-26 -1.861545621012213e-26 -4.569286067459094e-26 3.471501009631845e-15 1.977733671180834e-15 4.854477272470796e-15 3.434570651094492e-15
 1.421173263142712e+00 -3.786022772198519e-26 -2.156918490203282e-26 -5.294298186778779e-26 4.027290522097706e-15 2.294370085758589e-15 5.631682161381139e-15 3.984447589745812e-15
 1.422049358261611e+00 -4.386755571726829e-26 -2.499159348469898e-26 -6.134350865446140e-26 4.672060512377400e-15 2.661699179543924e-15 6.533315562926935e-15 4.622358418282753e-15
 1.422925453380509e+00 -5.082809298289536e-26 -2.895705075564442e-26 -7.107698413564987e-26 5.420056245406294e-15 3.087836560177409e-15 7.579297769418942e-15 5.362396858334215e-15
 1.423801548499408e+00 -5.889309247811808e-26 -3.355172637737273e-26 -8.235491741103231e-26 6.287803526755718e-15 3.582197072140030e-15 8.792738135379145e-15 6.220912911424965e-15
 1.424677643618306e+00 -6.823780809577693e-26 -3.887546347938585e-26 -9.542238000365823e-26 7.294473789878039e-15 4.155702789012804e-15 1.020044560821023e-14 7.216874062367027e-15
 1.425553738737205e+00 -7.906530322355030e-26 -4.504394841697538e-26 -1.105633316754937e-25 8.462307628323303e-15 4.821024302164927e-15 1.183352098713862e-14 8.372284305875616e-15
 1.426429833856103e+00 -9.161086367427754e-26 -5.219122484247473e-26 -1.281067913805269e-25 9.817106128906430e-15 5.592860636025794e-15 1.372804399364528e-14 9.712670252859167e-15
 1.427305928975002e+00 -1.061471108927207e-25 -6.047260672793573e-26 -1.484339874703926e-25 1.138880085950381e-14 6.488263973341677e-15 1.592587033094963e-14 1.126764505459837e-14
 1.428182024093901e+00 -1.229899265659488e-25 -7.006805364902736e-26 -1.719866425504987e-25 1.321211510259059e-14 7.527016363645334e-15 1.847555633970432e-14 1.307156260198008e-14
 1.429058119212799e+00 -1.425053173996699e-25 -8.118608168675885e-26 -1.992765730453565e-25 1.532733094119652e-14 8.732066736443482e-15 2.143343167558731e-14 1.516427645107577e-14
 1.429934214331698e+00 -1.651173692567409e-25 -9.406829494498118e-26 -2.308968121060749e-25 1.778117914216166e-14 1.013003787271836e-14 2.486484370416753e-14 1.759202023968252e-14
 1.430810309450596e+00 -1.913174635305308e-25 -1.089946361701816e-25 -2.675344976017233e-25 2.062787149405273e-14 1.175181453365193e-14 2.884560110150901e-14 2.040842904307122e-14
 1.431686404569495e+00 -2.216749560599180e-25 -1.262894705894740e-25 -3.099858052995204e-25 2.393029840380099e-14 1.363322573817169e-14 3.346364854925286e-14 2.367572423040851e-14
 1.432562499688393e+00 -2.568495506803007e-25 -1.463286351922933e-25 -3.591732517900306e-25 2.776141820650125e-14 1.581583626056694e-14 3.882100951752538e-14 2.746608799486452e-14
 1.433438594807292e+00 -2.976056363375379e-25 -1.695476066649208e-25 -4.161657432192397e-25 3.220586887754481e-14 1.834786483196493e-14 4.503604005081235e-14 3.186325792010736e-14
 1.434314689926191e+00 -3.448288993691274e-25 -1.964509655006153e-25 -4.822018055688414e-25 3.736183774883251e-14 2.128524932818495e-14 5.224604334154655e-14 3.696437680618801e-14
 1.435190785045089e+00 -3.995455720075000e-25 -2.276233619803044e-25 -5.587165013765750e-25 4.334323052977382e-14 2.469288247321485e-14 6.061030284550081e-14 4.288213861616317e-14
 1.436066880163988e+00 -4.629447354587667e-25 -2.637422223621373e-25 -6.473726179134560e-25 5.028218754499232e-14 2.864604535399688e-14 7.031360093804633e-14 4.974727794567851e-14
 1.436942975282886e+00 -5.364041623012651e-25 -3.055924714414139e-25 -7.500968046748078e-25 5.833200277009068e-14 3.323207041154123e-14 8.157030083512440e-14 5.771145800558543e-14
 1.437819070401785e+00 -6.215202598765004e-25 -3.540835914690245e-25 -8.691214456165645e-25 6.767051014398207e-14 3.855227064212452e-14 9.462908194438387e-14 6.695062091016349e-14
 1.438695165520683e+00 -7.201427654813168e-25 -4.102693881977846e-25 -1.007033176215038e-24 7.850401195760774e-14 4.472417762246510e-14 1.097784332450468e-13 7.766887427503988e-14
 1.439571260639582e+00 -8.344149474520959e-25 -4.753708936664266e-25 -1.166829099855487e-24 9.107183609224839e-14 5.188413779404345e-14 1.273530260384089e-13 9.010299997490027e-14
 1.440447355758481e+00 -9.668201859057521e-25 -5.508029035100005e-25 -1.351981925404419e-24 1.056516227707138e-13 6.019032435502426e-14 1.477411068344967e-13 1.045276846534116e-13
 1.441323450877379e+00 -1.120235945567172e-24 -6.382047255836012e-25 -1.566515441727426e-24 1.225654575980432e-13 6.982623128807414e-14 1.713930736729888e-13 1.212615875197020e-13
 1.442199545996278e+00 -1.297996313786299e-24 -7.394758082227867e-25 -1.815091969595805e-24 1.421869863610874e-13 8.100472670174189e-14 1.988314253159940e-13 1.406743794596078e-13
 1.443075641115176e+00 -1.503964463018255e-24 -8.568170225265227e-25 -2.103113691763006e-24 1.649496687410056e-13 9.397275501694407e-14 2.306623030738240e-13 1.631949089439245e-13
 1.443951736234075e+00 -1.742616612757644e-24 -9.927784959438509e-25 -2.436840063647015e-24 1.913563532486172e-13 1.090167918615396e-13 2.675888802022340e-13 1.893206751041303e-13
 1.444827831352974e+00 -2.019139315871684e-24 -1.150315036845673e-24 -2.823523856584076e-24 2.219903848750378e-13 1.264691721614427e-13 3.104268946178997e-13 2.196288172181267e-13
 1.445703926471872e+00 -2.339542183895541e-24 -1.332850354760165e-24 -3.271568790617169e-24 2.575284908035284e-13 1.467154312032110e-13 3.601226680190451e-13 2.547888633419282e-13
 1.446580021590771e+00 -2.710788501440590e-24 -1.544351472136648e-24 -3.790712183060575e-24 2.987557288011754e-13 1.702028208169525e-13 4.177740094160447e-13 2.955775196780575e-13
 1.447456116709669e+00 -3.140946568707908e-24 -1.789414945027545e-24 -4.392236582830410e-24 3.465828284675754e-13 1.974501887833537e-13 4.846544647852225e-13 3.428958273453839e-13
 1.448332211828568e+00 -3.639365061657025e-24 -2.073366766763971e-24 -5.089214990581807e-24 4.020663083690822e-13 2.290594396782963e-13 5.622414484652378e-13 3.977890655042055e-13
 1.449208306947466e+00 -4.216876221437895e-24 -2.402378126118999e-24 -5.896794994728773e-24 4.664318133976808e-13 2.657288302976346e-13 6.522488776509127e-13 4.614698404487427e-13
 1.450084402066365e+00 -4.886031289610695e-24 -2.783599536078143e-24 -6.832527999325443e-24 5.411011878184103e-13 3.082683933247312e-13 7.566650307988742e-13 5.353448706473386e-13
 1.450960497185264e+00 -5.661373306597929e-24 -3.225316248653608e-24 -7.916750699941972e-24 6.277238819785266e-13 3.576178299095215e-13 8.777964661387370e-13 6.210460593422616e-13
 1.451836592304162e+00 -6.559753202969286e-24 -3.737128333868537e-24 -9.173027099366663e-24 7.282133863672488e-13 4.148672663574569e-13 1.018318970330280e-12 7.204665410183286e-13
 1.452712687423061e+00 -7.600696054215121e-24 -4.330159337164261e-24 -1.062866067092357e-23 8.447894977519136e-13 4.812813333852614e-13 1.181336662579143e-12 8.358024979054393e-13
 1.453588782541959e+00 -8.806825460074977e-24 -5.017298050692505e-24 -1.231528780200025e-23 9.800273509262816e-13 5.583270997840260e-13 1.370450559648815e-12 9.696016701197077e-13
 1.454464877660858e+00 -1.020435527294233e-23 -5.813478653756607e-24 -1.426956541717075e-23 1.136914299033825e-12 6.477064774596070e-13 1.589838116161762e-12 1.124819630885065e-12
 1.455340972779756e+00 -1.182365936386020e-23 -6.736005311707625e-24 -1.653396772751684e-23 1.318915898774614e-12 7.513938135765891e-13 1.844345496987411e-12 1.304885069779538e-12
 1.456217067898655e+00 -1.369993181094506e-23 -7.804928289005657e-24 -1.915770942485916e-23 1.530052457895676e-12 8.716795000944369e-13 2.139594619714743e-12 1.513775525901619e-12
 1.457093163017554e+00 -1.587395186064309e-23 -9.043479751955231e-24 -2.219781538820853e-23 1.774987835643989e-12 1.011220563885644e-12 2.482107331421941e-12 1.756105243650525e-12
 1.457969258136452e+00 -1.839297028971130e-23 -1.047857873411596e-23 -2.572036015455528e-23 2.059132457478414e-12 1.173099354797036e-12 2.879449462379937e-12 2.037227091551795e-12
 1.458845353255351e+00 -2.131173643480133e-23 -1.214141624084018e-23 -2.980190409640741e-23 2.388762819270562e-12 1.360891627865929e-12 3.340397938326365e-12 2.363350795154285e-12
 1.459721448374249e+00 -2.469368821432236e-23 -1.406813321142762e-23 -3.453115752445675e-23 2.771160120407975e-12 1.578745523379694e-12 3.875134642211908e-12 2.741680095333193e-12
 1.460597543493148e+00 -2.861233101035103e-23 -1.630060607591289e-23 -4.001090888833964e-23 3.214771087684019e-12 1.831473189150973e-12 4.495471307096986e-12 3.180571861310660e-12
 1.461473638612046e+00 -3.315283538380631e-23 -1.888735698239714e-23 -4.636025898944483e-23 3.729394541955582e-12 2.124657068593451e-12 5.215110407218318e-12 3.689720672589117e-12
 1.462349733730945e+00 -3.841388835311051e-23 -2.188460848092424e-23 -5.371720977179856e-23 4.326397828088171e-12 2.464773202079779e-12 6.049947809275796e-12 4.280372946481248e-12
 1.463225828849844e+00 -4.450983847858318e-23 -2.535750559013898e-23 -6.224166396498932e-23 5.018967888248962e-12 2.859334264810650e-12 7.018423868281983e-12 4.965575340447198e-12
 1.464101923968742e+00 -5.157318138161625e-23 -2.938153181155339e-23 -7.211890078425212e-23 5.822402523711458e-12 3.317055500304569e-12 8.141930722218391e-12 5.760462915411473e-12
 1.464978019087641e+00 -5.975743972819989e-23 -3.404414987237853e-23 -8.356360324157094e-23 6.754448277904158e-12 3.848047214273163e-12 9.445284780902896e-12 6.682593424360072e-12
 1.465854114206539e+00 -6.924050028143012e-23 -3.944670286312618e-23 -9.682452461287226e-23 7.835692403066869e-12 4.464038080232224e-12 1.095727484428829e-11 7.752335109195794e-12
 1.466730209325438e+00 -8.022848056363049e-23 -4.570661709679081e-23 -1.121898955006532e-22 9.090017567305668e-12 5.178634188671014e-12 1.271129795567183e-11 8.993316570549504e-12
 1.467606304444337e+00 -9.296020918175393e-23 -5.295995457545987e-23 -1.299936890310189e-22 1.054512934444823e-11 6.007619560993261e-12 1.474609703291352e-11 1.043294864611834e-11
 1.468482399563235e+00 -1.077124172100437e-22 -6.136437055023955e-23 -1.506228803789118e-22 1.223316813649098e-11 6.969304765179967e-12 1.710661656849323e-11 1.210302982338806e-11
 1.469358494682134e+00 -1.248057534814680e-22 -7.110254046665820e-23 -1.745258584307969e-22 1.419141904307914e-11 8.084931332429872e-12 1.984499529672985e-11 1.404044855741295e-11
 1.470234589801032e+00 -1.446117545504156e-22 -8.238613079165510e-23 -2.022221724404923e-22 1.646313535558260e-11 9.379140906370127e-12 2.302171775135420e-11 1.628799800443564e-11
 1.471110684919931e+00 -1.675609208428073e-22 -9.546040004177436e-23 -2.343138255552303e-22 1.909849386264752e-11 1.088051948600848e-11 2.670695014560190e-11 1.889532116475263e-11
 1.471986780038829e+00 -1.941520745574286e-22 -1.106095300322432e-22 -2.714983607168944e-22 2.215570306508458e-11 1.262222878199563e-11 3.098209007764942e-11 2.192000730824321e-11
 1.472862875157728e+00 -2.249632027465366e-22 -1.281628032410357e-22 -3.145840234081101e-22 2.570228877481259e-11 1.464273862957941e-11 3.594156428634894e-11 2.542886389691365e-11
 1.473738970276627e+00 -2.606640212907410e-22 -1.485017605761167e-22 -3.645073308623153e-22 2.981658548995086e-11 1.698667663339422e-11 4.169491416020052e-11 2.949939209451520e-11
 1.474615065395525e+00 -3.020305328945651e-22 -1.720684951474664e-22 -4.223534296723137e-22 3.458946648252353e-11 1.970581380816642e-11 4.836921505723779e-11 3.422149844930925e-11
 1.475491160514424e+00 -3.499618955781114e-22 -1.993752623417752e-22 -4.893796843501105e-22 4.012635080691367e-11 2.286020798273141e-11 5.611188286533467e-11 3.969948055165991e-11
 1.476367255633322e+00 -4.054999683698167e-22 -2.310156151136440e-22 -5.670430096310575e-22 4.654953155269434e-11 2.651953021878003e-11 6.509392978418911e-11 4.605433051855449e-11
 1.477243350752221e+00 -4.698519591070133e-22 -2.676773065650822e-22 -6.570315407031239e-22 5.400087675969490e-11 3.076460353737935e-11 7.551374123069444e-11 5.342640717592290e-11
 1.478119445871119e+00 -5.444166666904655e-22 -3.101572403056702e-22 -7.613013298485090e-22 6.264496264291552e-11 3.568918793484601e-11 8.760145727771710e-11 6.197853595182620e-11
 1.478995540990018e+00 -6.308148882822922e-22 -3.593787936044283e-22 -8.821188672583246e-22 7.267270832176454e-11 4.140205110846193e-11 1.016240553864384e-10 7.189960493888830e-11
 1.479871636108917e+00 -7.309246524830043e-22 -4.164118899291574e-22 -1.022110350399585e-21 8.430559232304692e-11 4.802937062196476e-11 1.178912466794350e-10 8.340873654148222e-11
 1.480747731227815e+00 -8.469220444410609e-22 -4.824962572411900e-22 -1.184318773028285e-21 9.780054397461752e-11 5.571752056005097e-11 1.367623159672963e-10 9.676012683398828e-11
 1.481623826346714e+00 -9.813285104181673e-22 -5.590683776726258e-22 -1.372270074943112e-21 1.134556177102793e-10 6.463630421183012e-11 1.586540565825987e-10 1.122486595015693e-10
 1.482499921465612e+00 -1.137065670199657e-21 -6.477927144650677e-22 -1.590049790559141e-21 1.316165755957027e-10 7.498270417289675e-11 1.840499752519234e-10 1.302164183401743e-10
 1.483376016584511e+00 -1.317518828963212e-21 -7.505978950389399e-22 -1.842391862629041e-21 1.526845234413086e-10 8.698523268184055e-11 2.135109702826979e-10 1.510602421352824e-10
 1.484252111703410e+00 -1.526610569350167e-21 -8.697186368108108e-22 -2.134781551917231e-21 1.771247691342938e-10 1.009089782618762e-10 2.476877188767527e-10 1.752404887576409e-10
 1.485128206822308e+00 -1.768886023634936e-21 -1.007744327228349e-21 -2.473574680088502e-21 2.054770988121272e-10 1.170614601147374e-10 2.873350471248963e-10 2.032912020172536e-10
 1.486004301941207e+00 -2.049611679820256e-21 -1.167675314159260e-21 -2.866135798166827e-21 2.383676978093455e-10 1.357994195511974e-10 3.333286000194377e-10 2.358319057933269e-10
 1.486880397060105e+00 -2.374889869727582e-21 -1.352988130400855e-21 -3.320998284380794e-21 2.765229796305905e-10 1.575366984348538e-10 3.866841796122505e-10 2.735812858925649e-10
 1.487756492179004e+00 -2.751791428092076e-21 -1.567711070313518e-21 -3.848049851977313e-21 3.207856283366626e-10 1.827533786198116e-10 4.485801783651900e-10 3.173730617738881e-10
 1.488632587297902e+00 -3.188509406728839e-21 -1.816511761646643e-21 -4.458747500023339e-21 3.721332086079075e-10 2.120063842085578e-10 5.203836030888255e-10 3.681743986350969e-10
 1.489508682416801e+00 -3.694537185599068e-21 -2.104798636415731e-21 -5.166366580342957e-21 4.316997544494032e-10 2.459417807588756e-10 6.036802641541228e-10 4.271072664541338e-10
 1.490384777535700e+00 -4.280874853022108e-21 -2.438838506871410e-21 -5.986289395459928e-21 5.008008132773474e-10 2.853090430408379e-10 7.003097966397016e-10 4.954732176526288e-10
 1.491260872654598e+00 -4.960268341893326e-21 -2.825892802749025e-21 -6.936339601880467e-21 5.809624984283856e-10 3.309776064149812e-10 8.124062867772358e-10 5.747821305402008e-10
 1.492136967773497e+00 -5.747486520923894e-21 -3.274375431708298e-21 -8.037169688916738e-21 6.739551916471576e-10 3.839560673292302e-10 9.424454008330496e-10 6.667855532698126e-10
 1.493013062892395e+00 -6.659642265125751e-21 -3.794035694996005e-21 -9.312709957202895e-21 7.818326397882291e-10 4.454144569300655e-10 1.093299057150580e-09 7.735153846229581e-10
 1.493889158011294e+00 -7.716564485942209e-21 -4.396170235106599e-21 -1.079068875815600e-20 9.069773090821229e-10 5.167100796433139e-10 1.268298848644955e-09 8.973287457901305e-10
 1.494765253130192e+00 -8.941229209377581e-21 -5.093868623419184e-21 -1.250323530497219e-20 1.052152998493339e-09 5.994174873003514e-10 1.471309616265844e-09 1.040960034019845e-09
 1.495641348249091e+00 -1.036025907429069e-20 -5.902297927187976e-21 -1.448757816100627e-20 1.220565873990192e-09 6.953632507053803e-10 1.706814798094270e-09 1.207581307596614e-09
 1.496517443367990e+00 -1.200450211060053e-20 -6.839032442745437e-21 -1.678685459158694e-20 1.415935271492985e-09 8.066662964736423e-10 1.980015438763006e-09 1.400872335576544e-09
 1.497393538486888e+00 -1.390970238086970e-20 -7.924435763787133e-21 -1.945104837573547e-20 1.642575831974172e-09 9.357846998603346e-10 2.296945045530601e-09 1.625101859121702e-09
 1.498269633605787e+00 -1.611727706601861e-20 -9.182103491479686e-21 -2.253807646721662e-20 1.905492782410883e-09 1.085569966855848e-09 2.664602827251311e-09 1.885221858839347e-09
 1.499145728724685e+00 -1.867521689027052e-20 -1.063937621162019e-20 -2.611504813069164e-20 2.210492466569055e-09 1.259330004195717e-09 3.091108258402992e-09 2.186976909722588e-09
 1.500021823843584e+00 -2.163912946209945e-20 -1.232793389185076e-20 -3.025972392874374e-20 2.564310566330258e-09 1.460902167772626e-09 3.585880381215006e-09 2.537031038439297e-09
 1.500897918962482e+00 -2.507344821530251e-20 -1.428448462219277e-20 -3.506220628078316e-20 2.974760844898810e-09 1.694738002478803e-09 4.159845805180614e-09 2.943114884186076e-09
 1.501774014081381e+00 -2.905283323485766e-20 -1.655156267342504e-20 -4.062689834978819e-20 3.450907696367079e-09 1.966001544664989e-09 4.825679996902862e-09 3.414196412644977e-09
 1.502650109200280e+00 -3.366379442434408e-20 -1.917845322470332e-20 -4.707477384701606e-20 4.003266311784976e-09 2.280683357877142e-09 5.598087188305064e-09 3.960678952655727e-09
 1.503526204319178e+00 -3.900657230595230e-20 -2.222226386591518e-20 -5.454600710495364e-20 4.644034881666521e-09 2.645732819932001e-09 6.494125083951121e-09 4.594630928516548e-09
 1.504402299438077e+00 -4.519731734582423e-20 -2.574916617159796e-20 -6.320302060209417e-20 5.387363962257939e-09 3.069211582396588e-09 7.533581537423360e-09 5.330052360692629e-09
 1.505278394556975e+00 -5.237061518822141e-20 -2.983583434106003e-20 -7.323401619966534e-20 6.249668953482752e-09 3.560471591032880e-09 8.739411514204230e-09 6.183184019573288e-09
 1.506154489675874e+00 -6.068241270313914e-20 -3.457111218418393e-20 -8.485706686783315e-20 7.249992588407588e-09 4.130361598087420e-09 1.013824398966215e-08 7.172866058719052e-09
 1.507030584794772e+00 -7.031340846688980e-20 -4.005794469730170e-20 -9.832485786563840e-20 8.410425438342434e-09 4.791466726414603e-09 1.176096997493702e-08 8.320954046564686e-09
 1.507906679913671e+00 -8.147298139343976e-20 -4.641561622659024e-20 -1.139301804601319e-19 9.756593718691218e-09 5.558386375216096e-09 1.364342465484127e-08 9.652801582916193e-09
 1.508782775032570e+00 -9.440374293541557e-20 -5.378234388261557e-20 -1.320122976328170e-19 1.131822516667490e-08 6.448056603766598e-09 1.582717869990098e-08 1.119782015678082e-08
 1.509658870151468e+00 -1.093868118322853e-19 -6.231828259406844e-20 -1.529643201815413e-19 1.312980548589400e-08 7.480124111575891e-09 1.836045622524357e-08 1.299012860757115e-08
 1.510534965270367e+00 -1.267479260937643e-19 -7.220900713912293e-20 -1.772417535952936e-19 1.523133985238975e-08 8.677380072680550e-09 2.129919966537638e-08 1.506930653014889e-08
 1.511411060389265e+00 -1.468645251110793e-19 -8.366954686410084e-20 -2.053724015363474e-19 1.766923629662723e-08 1.006626340333272e-08 2.470830507780513e-08 1.748126825925503e-08
 1.512287155508164e+00 -1.701739558828271e-19 -9.694906081654690e-20 -2.379678412616214e-19 2.049733046680663e-08 1.167744457542953e-08 2.866305515146255e-08 2.027927673123290e-08
 1.513163250627062e+00 -1.971829817846123e-19 -1.123362549448372e-19 -2.757367204951313e-19 2.377807440056801e-08 1.354650286644530e-08 3.325078156117775e-08 2.352511960939702e-08
 1.514039345745961e+00 -2.284788006339061e-19 -1.301656591517495e-19 -3.195001648685413e-19 2.758391555338127e-08 1.571471199967075e-08 3.857279337327386e-08 2.729047364210863e-08
 1.514915440864860e+00 -2.647418116198065e-19 -1.508249006862403e-19 -3.702096309392633e-19 3.199889653271260e-08 1.822995152177394e-08 4.474661408169151e-08 3.165848737872601e-08
 1.515791535983758e+00 -3.067604086943714e-19 -1.747631320217841e-19 -4.289675929717204e-19 3.712051086006472e-08 2.114776404088326e-08 5.190857666833833e-08 3.672561718976210e-08
 1.516667631102657e+00 -3.554481220862766e-19 -2.025007964732131e-19 -4.970515132856729e-19 4.306185573594302e-08 2.453258166891245e-08 6.021683398637949e-08 4.260375713041166e-08
 1.517543726221555e+00 -4.118634806552930e-19 -2.346409438919011e-19 -5.759416173737078e-19 4.995412934037954e-08 2.845914874772476e-08 6.985485093511564e-08 4.942270967440666e-08
 1.518419821340454e+00 -4.772330269691041e-19 -2.718823424845988e-19 -6.673530777223166e-19 5.794952780866323e-08 3.301417227252302e-08 8.103545553264877e-08 5.733305187127834e-08
 1.519295916459353e+00 -5.529779855380064e-19 -3.150346718569043e-19 -7.732733061355550e-19 6.722460584639777e-08 3.829823645316493e-08 9.400553833246699e-08 6.650946021067655e-08
 1.520172011578251e+00 -6.407451640789376e-19 -3.650361276373589e-19 -8.960051654418523e-19 7.798417518461093e-08 4.442802368599196e-08 1.090515039447503e-07 7.715456760511773e-08
 1.521048106697150e+00 -7.424427597264564e-19 -4.229738204774838e-19 -1.038217040180188e-18 9.046582695061119e-08 5.153889097397073e-08 1.265055950289325e-07 8.950343765117150e-08
 1.521924201816048e+00 -8.602818487638728e-19 -4.901074129851517e-19 -1.203000855006576e-18 1.049451778054275e-07 5.978785868072330e-08 1.467532283868970e-07 1.038287549576826e-07
 1.522800296934947e+00 -9.968244620354478e-19 -5.678965085576482e-19 -1.393939302384692e-18 1.217419556785517e-07 6.935707760788414e-08 1.702415051321973e-07 1.204468461395444e-07
 1.523676392053845e+00 -1.155039291405106e-18 -6.580323876648044e-19 -1.615183741378602e-18 1.412270594677591e-07 8.045785094582884e-08 1.974890828324461e-07 1.397246644153447e-07
 1.524552487172744e+00 -1.338366238563879e-18 -7.624747816680569e-19 -1.871544461408466e-18 1.638307485753988e-07 9.333529989861651e-08 2.290976275923576e-07 1.620878920221243e-07
 1.525428582291643e+00 -1.550791209766124e-18 -8.834944838028846e-19 -2.168595273707048e-18 1.900521430975173e-07 1.082737759952191e-07 2.657650989273599e-07 1.880303393400321e-07
 1.526304677410541e+00 -1.796932782873067e-18 -1.023722723881319e-18 -2.512794704772338e-18 2.204702444190424e-07 1.256031395846515e-07 3.083011607425056e-07 2.181248482487332e-07
 1.527180772529440e+00 -2.082142631250428e-18 -1.186208380351952e-18 -2.911626427128463e-18 2.557567195362122e-07 1.457060431364314e-07 3.576450586721400e-07 2.530359404482612e-07
 1.528056867648338e+00 -2.412621888210994e-18 -1.374484273778028e-18 -3.373761981024763e-18 2.966907313668300e-07 1.690263801518403e-07 4.148863584878092e-07 2.935344900021599e-07
 1.528932962767237e+00 -2.795555982331073e-18 -1.592643983276455e-18 -3.909249325433381e-18 3.441761424805392e-07 1.960790862259384e-07 4.812890034491087e-07 3.405147440518622e-07
 1.529809057886135e+00 -3.239270875625830e-18 -1.845430856285957e-18 -4.529731318375142e-18 3.992614720812148e-07 2.274615086527686e-07 5.583192217469053e-07 3.950140674936295e-07
 1.530685153005034e+00 -3.753414101988151e-18 -2.138341147184972e-18 -5.248698877435217e-18 4.631630468593225e-07 2.638665955963219e-07 6.476779001902035e-07 4.582358475486160e-07
 1.531561248123933e+00 -4.349164542595301e-18 -2.477743527521904e-18 -6.081784325478040e-18 5.372918568454889e-07 3.060981960215114e-07 7.513381388922887e-07 5.315760639197630e-07
 1.532437343242831e+00 -5.039475499893327e-18 -2.871017566632905e-18 -7.047101300423553e-18 6.232847091938561e-07 3.550888081799580e-07 8.715888160954660e-07 6.166541111564267e-07
 1.533313438361730e+00 -5.839356355884622e-18 -3.326714193953952e-18 -8.165638620538593e-18 7.230403677119948e-07 4.119201685037135e-07 1.011085124963760e-06 7.153485537264894e-07
 1.534189533480628e+00 -6.766198939485636e-18 -3.854741632342194e-18 -9.461716669993099e-18 8.387614760256702e-07 4.778471354681756e-07 1.172907198094218e-06 8.298386031960213e-07
 1.535065628599527e+00 -7.840155699980458e-18 -4.466580845621927e-18 -1.096351622902075e-17 9.730031899547610e-07 5.543253957305753e-07 1.360628114054480e-06 9.626522332466053e-07
 1.535941723718425e+00 -9.084577910173856e-18 -5.175535185387707e-18 -1.270369124840439e-17 1.128729592797085e-06 6.430436042347469e-07 1.578392787382334e-06 1.116721994804722e-06
 1.536817818837324e+00 -1.052652342827054e-17 -5.997019665806616e-18 -1.472007889348831e-17 1.309379139041462e-06 7.459606678630345e-07 1.831009483759320e-06 1.295449763554606e-06
 1.537693913956223e+00 -1.219734506015586e-17 -6.948896156922517e-18 -1.705652229817083e-17 1.518940571351863e-06 8.653489957695483e-07 2.124055980796225e-06 1.502781849305879e-06
 1.538570009075121e+00 -1.413337231653258e-17 -8.051861785535014e-18 -1.976382392038911e-17 1.762040986884074e-06 1.003844671256699e-06 2.464002718201153e-06 1.743296125447308e-06
 1.539446104194020e+00 -1.637670139036872e-17 -9.329898989800117e-18 -2.290085023071017e-17 2.044047997212810e-06 1.164505652860865e-06 2.858355656169179e-06 2.022303102080951e-06
 1.540322199312918e+00 -1.897611053355108e-17 -1.081079701446477e-17 -2.653581175665606e-17 2.371188237291299e-06 1.350879289574065e-06 3.315821995930605e-06 2.345963174265323e-06
 1.541198294431817e+00 -2.198812073866167e-17 -1.252675618724734e-17 -3.074774631878791e-17 2.750684839796350e-06 1.567080640752578e-06 3.846502421113316e-06 2.721422633887414e-06
 1.542074389550716e+00 -2.547822479170542e-17 -1.451508811709977e-17 -3.562823771335102e-17 3.190916909903215e-06 1.817883329794112e-06 4.462114104064043e-06 3.156971447920457e-06
 1.542950484669614e+00 -2.952231142318374e-17 -1.681902704109193e-17 -4.128340721652079e-17 3.701604521227198e-06 2.108824937367831e-06 5.176249400456208e-06 3.662226286350413e-06
 1.543826579788513e+00 -3.420831552767963e-17 -1.948866996380877e-17 -4.783622121831848e-17 4.294023317083249e-06 2.446329260960543e-06 6.004675943379973e-06 4.248342840474587e-06
 1.544702674907411e+00 -3.963813033850534e-17 -2.258206603401500e-17 -5.542916516921472e-17 4.981253454794710e-06 2.837848139852004e-06 6.965684762061526e-06 4.928262118902746e-06
 1.545578770026310e+00 -4.592982314067655e-17 -2.616647884882600e-17 -6.422734198863596e-17 5.778468388941417e-06 3.292025976558540e-06 8.080494110554829e-06 5.716996158684929e-06
 1.546454865145208e+00 -5.322020270666688e-17 -3.031984913632340e-17 -7.442206231552767e-17 6.703269868932143e-06 3.818890586837759e-06 9.373717921615058e-06 6.631959459128320e-06
 1.547330960264107e+00 -6.166779428840251e-17 -3.513248962526952e-17 -8.623500467737502e-17 7.776076546512147e-06 4.430074591576879e-06 1.087390922762769e-05 7.693353455238906e-06
 1.548207055383006e+00 -7.145628686226864e-17 -4.070904896003153e-17 -9.992303604833162e-17 9.020574772307001e-06 5.139072238126159e-06 1.261419054543473e-05 8.924612518622629e-06
 1.549083150501904e+00 -8.279852759424607e-17 -4.717078736991376e-17 -1.157837976289628e-16 1.046424153338117e-05 5.961537320777761e-06 1.463298514170444e-05 1.035292133195446e-05
 1.549959245620803e+00 -9.594115039298760e-17 -5.465821358199820e-17 -1.341621773218082e-16 1.213895107635118e-05 6.915628777379365e-06 1.697486532249495e-05 1.200981505874183e-05
 1.550835340739701e+00 -1.111699392087099e-16 -6.333414032284441e-17 -1.554578096606669e-16 1.408167860801885e-05 8.022411591564427e-06 1.969153647406629e-05 1.393187555788319e-05
 1.551711435858600e+00 -1.288160427146804e-16 -7.338722485773676e-17 -1.801337662961281e-16 1.633531660851079e-05 9.306321850969955e-06 2.284297857874964e-05 1.616153901274346e-05
 1.552587530977498e+00 -1.492631755240008e-16 -8.503607156475686e-17 -2.087266260321543e-16 1.894962177790014e-05 1.079570622810081e-05 2.649877040603732e-05 1.874803280401276e-05
 1.553463626096397e+00 -1.729559625494152e-16 -9.853398576404522e-17 -2.418581434106866e-16 2.198231352105846e-05 1.252344779339956e-05 3.073962561166865e-05 2.174846230870889e-05
 1.554339721215296e+00 -2.004096079749433e-16 -1.141744821861798e-16 -2.802487696065537e-16 2.550034822072555e-05 1.452769197588867e-05 3.565917465539145e-05 2.522907161733522e-05
 1.555215816334194e+00 -2.322210991159275e-16 -1.322976678755273e-16 -3.247333196790785e-16 2.958139742933664e-05 1.685268869753596e-05 4.136603187455899e-05 2.926670600047719e-05