DF-ISE text

Info {
  version  = 1.0
  type     = xyplot
  datasets  = [ "hbar_omega" "gx" "gy" "gz" "spx" "spy" "spz" "lumi" ]
  functions = [ hbar_omega gx gy gz spx spy spz lumi ]
}

Data {

 1.411536216834828e+00 -7.474132678411632e-27 -4.240404194950101e-27 -1.046964962152740e-26 7.842969672923912e-16 4.449661644085486e-16 1.098631078692959e-15 7.759647367979662e-16
 1.412412311953726e+00 -8.660025899248143e-27 -4.913213576956721e-27 -1.213083052972355e-26 9.098668902615185e-16 5.162075045115771e-16 1.274527487420920e-15 9.002006273980052e-16
 1.413288407072625e+00 -1.003408430881499e-26 -5.692777346390899e-27 -1.405559032817226e-26 1.055540788756632e-15 5.988547141413572e-16 1.478585234569458e-15 1.044326912489149e-15
 1.414164502191523e+00 -1.162616460707746e-26 -6.596034522297039e-27 -1.628575182106230e-26 1.224537281781531e-15 6.947338574196861e-16 1.715312911929024e-15 1.211528017043414e-15
 1.415040597310422e+00 -1.347086103604133e-26 -7.642611939685054e-27 -1.886977408830392e-26 1.420590274618785e-15 8.059633430375839e-16 1.989940916351065e-15 1.405498178002478e-15
 1.415916692429321e+00 -1.560825712903065e-26 -8.855250749959414e-27 -2.186380552430654e-26 1.648031452199247e-15 9.350007263720169e-16 2.308537005185955e-15 1.630523061252406e-15
 1.416792787548219e+00 -1.808479674928562e-26 -1.026030059942522e-26 -2.533290397539446e-26 1.911885978768237e-15 1.084697004115575e-15 2.678140350897280e-15 1.891574444593697e-15
 1.417668882667118e+00 -2.095429334735397e-26 -1.188829222539536e-26 -2.935245049197081e-26 2.217983517992330e-15 1.258359600865960e-15 3.106917056312814e-15 2.194420058390368e-15
 1.418544977786016e+00 -2.427909937064654e-26 -1.377460091366473e-26 -3.400978741936611e-26 2.573087026090716e-15 1.459825439133891e-15 3.604340566053818e-15 2.545751010426142e-15
 1.419421072904915e+00 -2.813146123910411e-26 -1.596021523579966e-26 -3.940611642682128e-26 2.985042163188930e-15 1.693545706975573e-15 4.181400959651584e-15 2.953329609938695e-15
 1.420297168023813e+00 -3.259508933384610e-26 -1.849262777275002e-26 -4.565869772334238e-26 3.462950623560064e-15 1.964684195861834e-15 4.850847749872674e-15 3.426160856431524e-15
 1.421173263142712e+00 -3.776697711860160e-26 -2.142686718244540e-26 -5.290339825490358e-26 4.017371213795103e-15 2.279231381168010e-15 5.627471549914049e-15 3.974691381625720e-15
 1.422049358261611e+00 -4.375950892817741e-26 -2.482669404089749e-26 -6.129764426198006e-26 4.660553120900030e-15 2.644136765425075e-15 6.528430831750849e-15 4.611040239358651e-15
 1.422925453380509e+00 -5.070290223194918e-26 -2.876598644569333e-26 -7.102384236452686e-26 5.406706523398276e-15 3.067462407899806e-15 7.573630993989188e-15 5.349266641762423e-15
 1.423801548499408e+00 -5.874803744968521e-26 -3.333034549497351e-26 -8.229334352427968e-26 6.272316523425423e-15 3.558561032079686e-15 8.786164113096138e-15 6.205680556200417e-15
 1.424677643618306e+00 -6.806973681989258e-26 -3.861895553365552e-26 -9.535103603289423e-26 7.276507334756444e-15 4.128282645558368e-15 1.019281909236353e-14 7.199203024226114e-15
 1.425553738737205e+00 -7.887056358050167e-26 -4.474673959573203e-26 -1.104806673455706e-25 8.441464771852852e-15 4.789214236653977e-15 1.182467347803976e-14 8.351784162182199e-15
 1.426429833856103e+00 -9.138522403003389e-26 -5.184685688718104e-26 -1.280110104203515e-25 9.792926372865029e-15 5.555957842744816e-15 1.371778001606201e-14 9.688888077223953e-15
 1.427305928975002e+00 -1.058856681404262e-25 -6.007359658795529e-26 -1.483230085777882e-25 1.136074998353587e-14 6.445453132925214e-15 1.591396311560652e-14 1.124005541068920e-14
 1.428182024093901e+00 -1.226869995749505e-25 -6.960573086508559e-26 -1.718580541627712e-25 1.317957336210461e-14 7.477351630878485e-15 1.846174281345144e-14 1.303955593547818e-14
 1.429058119212799e+00 -1.421543235564604e-25 -8.065039996951279e-26 -1.991275809325975e-25 1.528957937591284e-14 8.674450844565991e-15 2.141740664956391e-14 1.512714562334758e-14
 1.429934214331698e+00 -1.647106814146756e-25 -9.344761385374649e-26 -2.307241786482647e-25 1.773738369285716e-14 1.006319789263064e-14 2.484625313157676e-14 1.754894490568819e-14
 1.430810309450596e+00 -1.908462442594002e-25 -1.082754681470289e-25 -2.673344714299319e-25 2.057706457663423e-14 1.167427375253204e-14 2.882403425606355e-14 2.035845752840994e-14
 1.431686404569495e+00 -2.211289655931049e-25 -1.254561878509833e-25 -3.097540397720869e-25 2.387135753367083e-14 1.354327103629206e-14 3.343862895150661e-14 2.361775250715650e-14
 1.432562499688393e+00 -2.562169243856130e-25 -1.453631301087444e-25 -3.589047105319549e-25 2.769304120101935e-14 1.571148026565251e-14 3.879198440865839e-14 2.739883529177675e-14
 1.433438594807292e+00 -2.968726268753988e-25 -1.684288982458652e-25 -4.158545906718379e-25 3.212654508880955e-14 1.822680201507991e-14 4.500236818133578e-14 3.178523842840841e-14
 1.434314689926191e+00 -3.439795779343326e-25 -1.951547434343739e-25 -4.818412801709422e-25 3.726981469130791e-14 2.114480507129914e-14 5.220698080518502e-14 3.687386685593069e-14
 1.435190785045089e+00 -3.985614821614864e-25 -2.261214583177906e-25 -5.582987686210278e-25 4.323647516556619e-14 2.452995398335569e-14 6.056498664531911e-14 4.277713859808033e-14
 1.436066880163988e+00 -4.618044920288627e-25 -2.620019993627047e-25 -6.468886000853117e-25 5.015834137157893e-14 2.845703311878989e-14 7.026102992179968e-14 4.962546813738950e-14
 1.436942975282886e+00 -5.350829866295461e-25 -3.035761122764186e-25 -7.495359835707784e-25 5.818832971839318e-14 3.301279868200831e-14 8.150931357870103e-14 5.757014732636750e-14
 1.437819070401785e+00 -6.199894413173951e-25 -3.517472783672525e-25 -8.684716339580818e-25 6.750383613587868e-14 3.829789518623435e-14 9.455833109479076e-14 6.678668747230127e-14
 1.438695165520683e+00 -7.183690374441562e-25 -4.075623501706148e-25 -1.006280252786805e-24 7.831065478773712e-14 4.442907871175142e-14 1.096963557561867e-13 7.747869641855842e-14
 1.439571260639582e+00 -8.323597644274930e-25 -4.722343031159698e-25 -1.165956702612995e-24 9.084752408522460e-14 5.154179605943270e-14 1.272578086421774e-13 8.988237626227822e-14
 1.440447355758481e+00 -9.644388857624785e-25 -5.471685977387979e-25 -1.350971095880412e-24 1.053914004169553e-13 5.979317676960383e-14 1.476306459844766e-13 1.042717410570119e-13
 1.441323450877379e+00 -1.117476778912828e-24 -6.339937254188887e-25 -1.565344213008634e-24 1.222635760837870e-13 6.936550409558519e-14 1.712649290759202e-13 1.209646697517641e-13
 1.442199545996278e+00 -1.294799319295430e-24 -7.345966015585460e-25 -1.813734888915065e-24 1.418367765744837e-13 8.047024160032469e-14 1.986827660246013e-13 1.403299280664699e-13
 1.443075641115176e+00 -1.500260164283605e-24 -8.511635754767804e-25 -2.101541267330368e-24 1.645433939491369e-13 9.335270431693184e-14 2.304898449502106e-13 1.627953144054264e-13
 1.443951736234075e+00 -1.738324508341402e-24 -9.862279483807462e-25 -2.435018123696975e-24 1.908850381912324e-13 1.082974776507935e-13 2.673888133704835e-13 1.888571097375031e-13
 1.444827831352974e+00 -2.014166129738120e-24 -1.142725032235176e-24 -2.821412806708085e-24 2.214436174998765e-13 1.256347037166854e-13 3.101947993034441e-13 2.190910401733353e-13
 1.445703926471872e+00 -2.333779838198845e-24 -1.324055946260153e-24 -3.269122753239543e-24 2.568941922638601e-13 1.457473739636016e-13 3.598534169157209e-13 2.541649943810609e-13
 1.446580021590771e+00 -2.704111767606298e-24 -1.534161537711485e-24 -3.787878000354633e-24 2.980198866351089e-13 1.690797891662112e-13 4.174616544243564e-13 2.948537767418922e-13
 1.447456116709669e+00 -3.133210345754402e-24 -1.777608033661709e-24 -4.388952661402937e-24 3.457291870654725e-13 1.961473736455977e-13 4.842921056199625e-13 3.420562221103443e-13
 1.448332211828568e+00 -3.630401222600842e-24 -2.059686285491533e-24 -5.085409962814939e-24 4.010760098920034e-13 2.275480604930063e-13 5.618210802302503e-13 3.968150502050867e-13
 1.449208306947466e+00 -4.206489959238708e-24 -2.386526763258084e-24 -5.892386167683264e-24 4.652829812153899e-13 2.639754992687653e-13 6.517612140141981e-13 4.603398981661177e-13
 1.450084402066365e+00 -4.873996883234334e-24 -2.765232799457422e-24 -6.827419557492319e-24 5.397684432658510e-13 3.062343779014514e-13 7.560992988622781e-13 5.340340400098602e-13
 1.450960497185264e+00 -5.647429215170427e-24 -3.204034978381133e-24 -7.910831622777285e-24 6.261777837568768e-13 3.552581972081925e-13 8.771401684713250e-13 6.195253831454647e-13
 1.451836592304162e+00 -6.543596381390829e-24 -3.712470026904392e-24 -9.166168748346991e-24 7.264197802070255e-13 4.121298906269033e-13 1.017557608909167e-12 7.187024265810320e-13
 1.452712687423061e+00 -7.581975366680063e-24 -4.301588095130130e-24 -1.062071399367515e-23 8.427087619736072e-13 4.781057445923766e-13 1.180453418540275e-12 8.337559750354198e-13
 1.453588782541959e+00 -8.785134048336073e-24 -4.984192932427288e-24 -1.230608009273070e-23 9.776135212347218e-13 5.546431478876001e-13 1.369425921773988e-12 9.672275302987701e-13
 1.454464877660858e+00 -1.017922171343675e-23 -5.775120179450326e-24 -1.425889656298896e-23 1.134114053214978e-12 6.434327828693127e-13 1.588649449896352e-12 1.122065428660214e-12
 1.455340972779756e+00 -1.179453742148878e-23 -6.691559825267286e-24 -1.652160585905241e-23 1.315667378869377e-12 7.464359695715954e-13 1.842966544469067e-12 1.301689964303347e-12
 1.456217067898655e+00 -1.366618856679289e-23 -7.753429838754594e-24 -1.914338587664067e-23 1.526283903835369e-12 8.659279874978188e-13 2.137994919770264e-12 1.510068937034484e-12
 1.457093163017554e+00 -1.583485395558156e-23 -8.983809095818695e-24 -2.218121885925979e-23 1.770616000168389e-12 1.004548331935112e-12 2.480251546721599e-12 1.751805292941700e-12
 1.457969258136452e+00 -1.834766798487234e-23 -1.040943901294741e-23 -2.570112994228400e-23 2.054060767326036e-12 1.165359014780450e-12 2.877296598887682e-12 2.032238793664723e-12
 1.458845353255351e+00 -2.125924514245365e-23 -1.206130479111188e-23 -2.977962225671225e-23 2.382879242027679e-12 1.351912197536952e-12 3.337900439806255e-12 2.357563959790295e-12
 1.459721448374249e+00 -2.463286709769677e-23 -1.397530890459375e-23 -3.450533978764502e-23 2.764334689900940e-12 1.568328650247303e-12 3.872237339790779e-12 2.734966893313007e-12
 1.460597543493148e+00 -2.854185818724733e-23 -1.619305147451505e-23 -3.998099413339616e-23 3.206853033258594e-12 1.819388769227548e-12 4.492110200682752e-12 3.172784001056298e-12
 1.461473638612046e+00 -3.307117919499213e-23 -1.876273449031051e-23 -4.632559704785632e-23 3.720208958238544e-12 2.110638163832903e-12 5.211211251858795e-12 3.680686124643414e-12
 1.462349733730945e+00 -3.831927407097915e-23 -2.174020953459351e-23 -5.367704729583307e-23 4.315741811676866e-12 2.448510144249404e-12 6.045424475236158e-12 4.269892143720810e-12
 1.463225828849844e+00 -4.440020973241906e-23 -2.519019178637651e-23 -6.219512805324565e-23 5.006606056001836e-12 2.840467815570731e-12 7.013176438619939e-12 4.953416770064168e-12
 1.464101923968742e+00 -5.144615546097029e-23 -2.918766669219947e-23 -7.206498000855075e-23 5.808061813653973e-12 3.295168916426433e-12 8.135843285839566e-12 5.746358005306657e-12
 1.464978019087641e+00 -5.961025579279878e-23 -3.381951988301469e-23 -8.350112566276513e-23 6.737811917920997e-12 3.822657042744630e-12 9.438222872352606e-12 6.666230611006078e-12
 1.465854114206539e+00 -6.906995935184996e-23 -3.918642576771319e-23 -9.675213230770348e-23 7.816392914171401e-12 4.434583479949078e-12 1.094908247373448e-11 7.733352955951652e-12
 1.466730209325438e+00 -8.003087598829472e-23 -4.540503585740637e-23 -1.121060150459386e-22 9.067628646955486e-12 5.144464542870900e-12 1.270179416348313e-11 8.971295784436505e-12
 1.467606304444337e+00 -9.273124606878585e-23 -5.261051439035890e-23 -1.298964973035705e-22 1.051915645064168e-11 5.967980106839482e-12 1.473507189273649e-11 1.040740281673922e-11
 1.468482399563235e+00 -1.074471190726295e-22 -6.095947637735846e-23 -1.505102649277588e-22 1.220303756468402e-11 6.923319923110971e-12 1.709382655055130e-11 1.207339467944876e-11
 1.469358494682134e+00 -1.244983540674092e-22 -7.063339193545270e-23 -1.743953715603075e-22 1.415646525467804e-11 8.031585367087916e-12 1.983015788894188e-11 1.400606950356928e-11
 1.470234589801032e+00 -1.442555725045171e-22 -8.184253091464694e-23 -2.020709780062525e-22 1.642258627815111e-11 9.317255491991595e-12 2.300450521947157e-11 1.624811566320476e-11
 1.471110684919931e+00 -1.671482144775185e-22 -9.483053356761067e-23 -2.341386373161659e-22 1.905145383717628e-11 1.080872768079257e-11 2.668698229455642e-11 1.884905460417509e-11
 1.471986780038829e+00 -1.936738735747607e-22 -1.098797066221178e-22 -2.712953709035128e-22 2.210113306370104e-11 1.253894483665874e-11 3.095892585424043e-11 2.186633458486674e-11
 1.472862875157728e+00 -2.244091132532262e-22 -1.273171598856643e-22 -3.143488199540772e-22 2.563898345203036e-11 1.454612296330748e-11 3.591469203781087e-11 2.536659948438290e-11
 1.473738970276627e+00 -2.600219998680436e-22 -1.475219167843405e-22 -3.642348015001772e-22 2.974314656063065e-11 1.687459520367018e-11 4.166374033350894e-11 2.942716069926992e-11
 1.474615065395525e+00 -3.012866248114028e-22 -1.709331534109362e-22 -4.220376508085158e-22 3.450427183858594e-11 1.957579097714630e-11 4.833305108957412e-11 3.413770463510212e-11
 1.475491160514424e+00 -3.490999314567181e-22 -1.980597451904542e-22 -4.890137923036990e-22 4.002751869074794e-11 2.270937183921786e-11 5.606992997618632e-11 3.960227350205070e-11
 1.476367255633322e+00 -4.045012127099167e-22 -2.294913286984956e-22 -5.666190514369808e-22 4.643487899602394e-11 2.634454914822223e-11 6.504526133321258e-11 4.594156315915291e-11
 1.477243350752221e+00 -4.686947030279061e-22 -2.659111191069728e-22 -6.565403012367766e-22 5.386787137002956e-11 3.056161263905441e-11 7.545728225171903e-11 5.329558875360100e-11
 1.478119445871119e+00 -5.430757560378988e-22 -3.081107618988896e-22 -7.607321315135145e-22 6.249066667279622e-11 3.545370366115544e-11 8.753596073690088e-11 6.182677702361752e-11
 1.478995540990018e+00 -6.292611768416824e-22 -3.570075417186380e-22 -8.814593378829960e-22 7.249371378559286e-11 4.112887224117091e-11 1.015480746402449e-10 7.172355355566955e-11
 1.479871636108917e+00 -7.291243684125376e-22 -4.136643224687718e-22 -1.021346154296392e-21 8.409794572856844e-11 4.771246339848363e-11 1.178031035241730e-10 8.320450421707503e-11
 1.480747731227815e+00 -8.448360561516415e-22 -4.793126521419779e-22 -1.183433299369849e-21 9.755965900678985e-11 5.534988541282198e-11 1.366600635746036e-10 9.652320266473846e-11
 1.481623826346714e+00 -9.789114759410981e-22 -5.553795346790082e-22 -1.371244076680419e-21 1.131761739391993e-10 6.420982117783233e-11 1.585354365023454e-10 1.119738105397924e-10
 1.482499921465612e+00 -1.134265051550140e-21 -6.435184508660079e-22 -1.588860966032156e-21 1.312924009716208e-10 7.448795355924415e-11 1.839123675329321e-10 1.298975740212657e-10
 1.483376016584511e+00 -1.314273750072702e-21 -7.456453026607757e-22 -1.841014370774626e-21 1.523084579817288e-10 8.641128702700318e-11 2.133513356097784e-10 1.506903602061701e-10
 1.484252111703410e+00 -1.522850492739722e-21 -8.639800623752999e-22 -2.133185450534914e-21 1.766885067927933e-10 1.002431609981650e-10 2.475025314461644e-10 1.748113997457076e-10
 1.485128206822308e+00 -1.764529217061254e-21 -1.001095032170156e-21 -2.471725274952614e-21 2.049710040367297e-10 1.162890656023550e-10 2.871202167758745e-10 2.027934288049864e-10
 1.486004301941207e+00 -2.044563439560094e-21 -1.159970763028341e-21 -2.863992888834844e-21 2.377805927393318e-10 1.349033883010889e-10 3.330793819021287e-10 2.352544543141831e-10
 1.486880397060105e+00 -2.369040461875407e-21 -1.344060848900770e-21 -3.318515290302298e-21 2.758418972322205e-10 1.564972403480449e-10 3.863950693971940e-10 2.729114023258198e-10
 1.487756492179004e+00 -2.745013703115346e-21 -1.557367004670222e-21 -3.845172799904943e-21 3.199955260261742e-10 1.815475359229344e-10 4.482447906801576e-10 3.165959508764221e-10
 1.488632587297902e+00 -3.180656035421754e-21 -1.804526060161136e-21 -4.455413850713040e-21 3.712166360374499e-10 2.106075244335989e-10 5.199945304984942e-10 3.672728969898477e-10
 1.489508682416801e+00 -3.685437456344675e-21 -2.090910761492040e-21 -5.162503869035090e-21 4.306364681195488e-10 2.443190085703381e-10 6.032289135683035e-10 4.260614634193968e-10
 1.490384777535700e+00 -4.270330960735320e-21 -2.422746571255085e-21 -5.981813656586098e-21 4.995673294653889e-10 2.834265179214503e-10 6.997861995374936e-10 4.942600156414443e-10
 1.491260872654598e+00 -4.948051087965972e-21 -2.807247006845629e-21 -6.931153543748763e-21 5.795315745597063e-10 3.287937511421534e-10 8.117988790562349e-10 5.733747349193649e-10
 1.492136967773497e+00 -5.733330330687697e-21 -3.252770459307606e-21 -8.031160578692429e-21 6.722952246565944e-10 3.814226497628486e-10 9.417407674219039e-10 6.651528806137822e-10
 1.493013062892395e+00 -6.643239414511547e-21 -3.769001902082790e-21 -9.305747170203689e-21 7.799069681853116e-10 4.424755248346439e-10 1.092481635745186e-09 7.716213762550469e-10
 1.493889158011294e+00 -7.697558411820148e-21 -4.367163440198956e-21 -1.078262093818283e-20 9.047434033077979e-10 5.133007250220885e-10 1.267350586025953e-09 8.951315714519467e-10
 1.494765253130192e+00 -8.919206758142307e-21 -5.060258277471648e-21 -1.249388707393865e-20 1.049561521688700e-09 5.954624129542465e-10 1.470209569607606e-09 1.038411168083518e-09
 1.495641348249091e+00 -1.033474152017077e-20 -5.863353405865670e-21 -1.447674630633311e-20 1.217559592436546e-09 6.907751073623018e-10 1.705538672461614e-09 1.204624457420154e-09
 1.496517443367990e+00 -1.197493474842408e-20 -6.793907163053252e-21 -1.677430364847313e-20 1.412447790662537e-09 8.013437537673624e-10 1.978535050581904e-09 1.397442198337268e-09
 1.497393538486888e+00 -1.387544246702484e-20 -7.872148779738303e-21 -1.943650550825947e-20 1.638530130280118e-09 9.296102085611857e-10 2.295227700184963e-09 1.621122679675422e-09
 1.498269633605787e+00 -1.607757984543305e-20 -9.121518168675009e-21 -2.252122553697900e-20 1.900799510278339e-09 1.078407162937410e-09 2.662610597061801e-09 1.880605756759183e-09
 1.499145728724685e+00 -1.862921940562438e-20 -1.056917551710396e-20 -2.609552282404692e-20 2.205047973266117e-09 1.251020697413064e-09 3.088797145043625e-09 2.181621938574269e-09
 1.500021823843584e+00 -2.158583179326709e-20 -1.224659176201692e-20 -3.023709979319781e-20 2.557994610987185e-09 1.451262848252707e-09 3.583199344071893e-09 2.530818934437262e-09
 1.500897918962482e+00 -2.501169174114306e-20 -1.419023278624495e-20 -3.503599149741989e-20 2.967433941169083e-09 1.683555788180816e-09 4.156735634196745e-09 2.935908454515547e-09
 1.501774014081381e+00 -2.898127544473993e-20 -1.644235221109249e-20 -4.059652304110333e-20 3.442408032095027e-09 1.953029480221691e-09 4.822072005018895e-09 3.405836505778538e-09
 1.502650109200280e+00 -3.358087973177267e-20 -1.905191002241937e-20 -4.703957768769859e-20 3.993406175659703e-09 2.265634961006128e-09 5.593901694622492e-09 3.950980943762774e-09
 1.503526204319178e+00 -3.891049822974284e-20 -2.207563700301646e-20 -5.450522496625561e-20 4.632596517956098e-09 2.628275754990715e-09 6.489269654123266e-09 4.583380642356693e-09
 1.504402299438077e+00 -4.508599532354833e-20 -2.557926811437106e-20 -6.315576591766986e-20 5.374094762087996e-09 3.048960321381552e-09 7.527948942418804e-09 5.317001341962784e-09
 1.505278394556975e+00 -5.224162516994316e-20 -2.963897164436135e-20 -7.317926169123134e-20 6.234275876475089e-09 3.536978899965227e-09 8.732877362367681e-09 6.168044046269333e-09
 1.506154489675874e+00 -6.053295053822893e-20 -3.434300519395677e-20 -8.479362221158561e-20 7.232135691498540e-09 4.103108660789437e-09 1.013066397978664e-08 7.155302777358206e-09
 1.507030584794772e+00 -7.014022494000685e-20 -3.979363450817868e-20 -9.825134381385409e-20 8.389710368887848e-09 4.759851687595487e-09 1.175217670968846e-08 8.300579588723929e-09
 1.507906679913671e+00 -8.127231158420858e-20 -4.610935687165299e-20 -1.138449988553177e-19 9.732563006094673e-09 5.521711049880970e-09 1.363322394417337e-08 9.629166000049670e-09
 1.508782775032570e+00 -9.417122436592628e-20 -5.342747741129528e-20 -1.319135966624317e-19 1.129034812024612e-08 6.405511059473886e-09 1.581534527283322e-08 1.117040148418441e-08
 1.509658870151468e+00 -1.091173896227720e-19 -6.190709432211145e-20 -1.528499541178720e-19 1.309746647586908e-08 7.430768783100940e-09 1.834672875531413e-08 1.295832133809472e-08
 1.510534965270367e+00 -1.264357430643165e-19 -7.173255792342980e-20 -1.771092361451303e-19 1.519382471534460e-08 8.620125014154599e-09 2.128327499992465e-08 1.503240824314128e-08
 1.511411060389265e+00 -1.465027944399684e-19 -8.311747875569858e-20 -2.052188517861704e-19 1.762571656510132e-08 9.999844219723445e-09 2.468983154366162e-08 1.743846410949546e-08
 1.512287155508164e+00 -1.697548135527066e-19 -9.630937186612077e-20 -2.377899210430198e-19 2.044684507491210e-08 1.160039450190511e-08 2.864162478922893e-08 2.022962145534871e-08
 1.513163250627062e+00 -1.966973156083964e-19 -1.115950382644971e-19 -2.755305618086185e-19 2.371950846162527e-08 1.345712037911134e-08 3.322592111662156e-08 2.346751665245272e-08
 1.514039345745961e+00 -2.279160521429084e-19 -1.293068005595857e-19 -3.192612857877583e-19 2.751597574097763e-08 1.561102324249713e-08 3.854395384692308e-08 2.722365094346594e-08
 1.514915440864860e+00 -2.640897465066308e-19 -1.498297283595998e-19 -3.699328381671159e-19 3.192008252157847e-08 1.810966672007555e-08 4.471315860587309e-08 3.158096928250904e-08
 1.515791535983758e+00 -3.060048508193620e-19 -1.736100105417519e-19 -4.286468689297236e-19 3.702908219616480e-08 2.100822693893428e-08 5.186976644398648e-08 3.663569185969519e-08
 1.516667631102657e+00 -3.545726452640121e-19 -2.011646564336342e-19 -4.966798852815187e-19 4.295579340426262e-08 2.437071087525346e-08 6.017181196908029e-08 4.249943874953212e-08
 1.517543726221555e+00 -4.108490515196638e-19 -2.330927368452177e-19 -5.755110060023507e-19 4.983109118179709e-08 2.827136969304492e-08 6.980262291017529e-08 4.930169459500577e-08
 1.518419821340454e+00 -4.760575911517058e-19 -2.700884093733462e-19 -6.668541212043159e-19 5.780679680150866e-08 3.279633827772095e-08 8.097486816132249e-08 5.719266774685071e-08
 1.519295916459353e+00 -5.516159881620831e-19 -3.129560111984979e-19 -7.726951567732882e-19 6.705903011073764e-08 3.804553716476215e-08 9.393525368458871e-08 6.634660698669617e-08
 1.520172011578251e+00 -6.391669941428121e-19 -3.626275475501511e-19 -8.953352537678253e-19 7.779209838455462e-08 4.413487885713540e-08 1.089699699554637e-07 7.696564906571790e-08
 1.521048106697150e+00 -7.406141062954488e-19 -4.201829561101530e-19 -1.037440801669286e-18 9.024300755790816e-08 5.119882724570715e-08 1.264110112271808e-07 8.928428201026536e-08
 1.521924201816048e+00 -8.581629549720441e-19 -4.868735879850139e-19 -1.202101413409905e-18 1.046866954417119e-07 5.939336664289240e-08 1.466435061389841e-07 1.035745227411961e-07
 1.522800296934947e+00 -9.943692606765273e-19 -5.641494158220324e-19 -1.392897102799731e-18 1.214421024682842e-07 6.889944598354964e-08 1.701142215225872e-07 1.201519233248070e-07
 1.523676392053845e+00 -1.152194403317103e-18 -6.536905606902293e-19 -1.613976125077076e-18 1.408792140029623e-07 7.992697423809124e-08 1.973414271635066e-07 1.393825384681867e-07
 1.524552487172744e+00 -1.335069812028584e-18 -7.574438232585158e-19 -1.870145173177204e-18 1.634272297093882e-07 9.271945525271329e-08 2.289263393217860e-07 1.616910080946292e-07
 1.525428582291643e+00 -1.546971575687444e-18 -8.776650136224354e-19 -2.166973890989484e-18 1.895840403394450e-07 1.075593643491363e-07 2.655663956729812e-07 1.875699334538541e-07
 1.526304677410541e+00 -1.792506896492445e-18 -1.016968000222808e-18 -2.510915976197902e-18 2.199272211844552e-07 1.247743853929805e-07 3.080706547647996e-07 2.175907537807451e-07
 1.527180772529440e+00 -2.077014266515790e-18 -1.178381544409190e-18 -2.909449506046784e-18 2.551267849095404e-07 1.447446460375955e-07 3.573776599905289e-07 2.524163636458883e-07
 1.528056867648338e+00 -2.406679545537700e-18 -1.365415156500687e-18 -3.371239537378636e-18 2.959599753364870e-07 1.679111108877357e-07 4.145761624915620e-07 2.928157495719282e-07
 1.528932962767237e+00 -2.788670464260215e-18 -1.582135405374966e-18 -3.906326516658628e-18 3.433284288008465e-07 1.947853178922310e-07 4.809291605213951e-07 3.396809690714909e-07
 1.529809057886135e+00 -3.231292477664420e-18 -1.833254340932418e-18 -4.526344596950501e-18 3.982780819798079e-07 2.259606729303258e-07 5.579017860234327e-07 3.940468469778555e-07
 1.530685153005034e+00 -3.744169357547434e-18 -2.124231952185278e-18 -5.244774609153050e-18 4.620222657234831e-07 2.621255519578777e-07 6.471936541132128e-07 4.571138239315245e-07
 1.531561248123933e+00 -4.338452451247350e-18 -2.461394888935829e-18 -6.077237188390328e-18 5.359684947618999e-07 3.040784999864044e-07 7.507763896861685e-07 5.302744614781576e-07
 1.532437343242831e+00 -5.027063156931360e-18 -2.852074028671935e-18 -7.041832429649943e-18 6.217495447559055e-07 3.527458624608676e-07 8.709371596705333e-07 6.151441889624354e-07
 1.533313438361730e+00 -5.824973888152003e-18 -3.304763880117155e-18 -8.159533458594440e-18 7.212595028145593e-07 4.092022383037948e-07 1.010329172035414e-06 7.135969710512560e-07
 1.534189533480628e+00 -6.749533637354970e-18 -3.829307289727762e-18 -9.454642475894590e-18 8.366955874021972e-07 4.746942061878477e-07 1.172030256470625e-06 8.278066833535565e-07
 1.535065628599527e+00 -7.820845217882706e-18 -4.437109467672832e-18 -1.095531919200195e-17 9.706066609316870e-07 5.506678478636838e-07 1.359610820078139e-06 9.602951096245031e-07
 1.535941723718425e+00 -9.062202387822696e-18 -5.141385987419566e-18 -1.269419314348396e-17 1.125949506096149e-06 6.388006761980797e-07 1.577212678388309e-06 1.113987620227512e-06
 1.536817818837324e+00 -1.050059636125889e-17 -5.957450151843211e-18 -1.470907320616221e-17 1.306154108392690e-06 7.410386728208870e-07 1.829640502110880e-06 1.292277761108152e-06
 1.537693913956223e+00 -1.216730272140133e-17 -6.903045974859614e-18 -1.704376973395948e-17 1.515199386121243e-06 8.596392530841828e-07 2.122467898547757e-06 1.499102179251061e-06
 1.538570009075121e+00 -1.409856149854061e-17 -7.998734019559641e-18 -1.974904720159499e-17 1.757701039791876e-06 9.972211068948188e-07 2.462160469685869e-06 1.739027538790854e-06
 1.539446104194020e+00 -1.633636520176165e-17 -9.268338483260417e-18 -2.288372806723790e-17 2.039013460429676e-06 1.156822015777984e-06 2.856218563776856e-06 2.017351346661505e-06
 1.540322199312918e+00 -1.892937194100625e-17 -1.073946525181255e-17 -2.651597185978769e-17 2.365347946644132e-06 1.341965922620144e-06 3.313342871981644e-06 2.340218913748640e-06
 1.541198294431817e+00 -2.193396349636341e-17 -1.244410218884606e-17 -3.072475730599634e-17 2.743909840371743e-06 1.556740734807416e-06 3.843626526000832e-06 2.714759033726663e-06
 1.542074389550716e+00 -2.541547134361515e-17 -1.441931471398585e-17 -3.560159972811339e-17 3.183057608860827e-06 1.805888578432542e-06 4.458777937661799e-06 3.149241374985055e-06
 1.542950484669614e+00 -2.944959729758976e-17 -1.670805179631239e-17 -4.125254105915269e-17 3.692487384963942e-06 2.094910496119373e-06 5.172379300109899e-06 3.653259060397737e-06
 1.543826579788513e+00 -3.412405966722150e-17 -1.936007989053047e-17 -4.780045575147350e-17 4.283447039829474e-06 2.430187899876920e-06 6.000186457528251e-06 4.237940465744883e-06
 1.544702674907411e+00 -3.954050072046744e-17 -2.243306512571811e-17 -5.538772272416658e-17 4.968984514055453e-06 2.819123460285309e-06 6.960476763581233e-06 4.916194912640666e-06
 1.545578770026310e+00 -4.581669693992937e-17 -2.599382728056057e-17 -6.417932145498831e-17 5.764235889657381e-06 3.270304542394637e-06 8.074452608177580e-06 5.702997680076533e-06
 1.546454865145208e+00 -5.308912013495869e-17 -3.011979281490322e-17 -7.436641954662285e-17 6.686759562534043e-06 3.793692796464031e-06 9.366709521097159e-06 6.615720626698411e-06
 1.547330960264107e+00 -6.151590510617232e-17 -3.490067855637910e-17 -8.617052978528336e-17 7.756923892826088e-06 4.400844089062543e-06 1.086577918662318e-05 7.674515722837270e-06
 1.548207055383006e+00 -7.128028839981954e-17 -4.044044265703883e-17 -9.984832709468453e-17 8.998356891137483e-06 5.105163629845178e-06 1.260475935705218e-05 8.902759959344947e-06
 1.549083150501904e+00 -8.259459293445823e-17 -4.685954524736954e-17 -1.156972301394914e-16 1.043846786808774e-05 5.922201926293683e-06 1.462204457132151e-05 1.032757145523431e-05
 1.549959245620803e+00 -9.570484515380492e-17 -5.429756795026335e-17 -1.340618689616388e-16 1.210905256329686e-05 6.869998100015866e-06 1.696217381033754e-05 1.198040815788342e-05
 1.550835340739701e+00 -1.108961251156880e-16 -6.291624922191887e-17 -1.553415793021785e-16 1.404699511278923e-05 7.969478143743878e-06 1.967681380205363e-05 1.389776235286225e-05
 1.551711435858600e+00 -1.284987658666332e-16 -7.290300152991266e-17 -1.799990865892471e-16 1.629508235153395e-05 9.244916911007056e-06 2.282589968386814e-05 1.612196631546972e-05
 1.552587530977498e+00 -1.488955369218939e-16 -8.447498685767962e-17 -2.085705684456198e-16 1.890294842771620e-05 1.072447403739474e-05 2.647895820366423e-05 1.870212688959172e-05
 1.553463626096397e+00 -1.725299680728963e-16 -9.788383916708021e-17 -2.416773145491312e-16 2.192817058199515e-05 1.244081562438783e-05 3.071664267040648e-05 2.169520962559649e-05
 1.554339721215296e+00 -1.999159945439792e-16 -1.134211365208044e-16 -2.800392374184851e-16 2.543754028200944e-05 1.443183540997115e-05 3.563251353962412e-05 2.516729641053490e-05
 1.555215816334194e+00 -2.316491332570570e-16 -1.314247418700867e-16 -3.244905279509953e-16 2.950853777338185e-05 1.674149134642809e-05 4.133510394153281e-05 2.919504435378092e-05